#INFO: **** input file is /tigress/xingz/pydmfet/examples/research/CBVN/CBVN.py ****
from pydmfet import locints, sdmfet,oep,tools,dfet_ao
from pydmfet.qcwrap.pyscf_rks_ao import rks_ao
from pyscf import gto, scf, ao2mo, geomopt
import numpy as np
from pyscf.tools import molden
import time
from pydmfet import dfet_ao
from pydmfet.dfet_ao import dfet

bas ='stuttgartdz'
ecp = 'stuttgartdz'
temp = 0.005


mol = gto.Mole()
mol.atom = open('CBVN.xyz').read()
mol.basis = {'H':'ccpvdz', 'B':bas, 'C':bas, 'N':bas}
mol.ecp = ecp
mol.charge = 0
mol.build(max_memory = 24000, verbose=4)


mf = scf.RHF(mol)
#mf = rks_ao(mol,smear_sigma = temp)
#mf.xc = "pbe,pbe"
mf.max_cycle = 50

#DMguess = None
#mf.scf(dm0=DMguess)

opt1 = geomopt.optimize(mf)
#INFO: ******************** input file end ********************


System: uname_result(system='Linux', node='tiger-i25c1n11', release='3.10.0-957.27.2.el7.x86_64', version='#1 SMP Tue Jul 30 11:12:20 EDT 2019', machine='x86_64', processor='x86_64')  Threads 40
Python 3.7.0 (default, Jun 28 2018, 13:15:42) 
[GCC 7.2.0]
numpy 1.16.4  scipy 1.4.0.dev0+0f78e0f
Date: Fri Sep  6 21:44:23 2019
PySCF version 1.5
PySCF path  /home/xingz/.local/lib/python3.7/site-packages/pyscf

[CONFIG] conf_file None
[INPUT] verbose = 4
[INPUT] num. atoms = 51
[INPUT] num. electrons = 160
[INPUT] charge = 0
[INPUT] spin (= nelec alpha-beta = 2S) = 0
[INPUT] symmetry False subgroup None
[INPUT] Mole.unit = angstrom
[INPUT]  1 B     -5.108250000000  -2.828870000000   0.000000000000 AA   -9.653193475809  -5.345789541998   0.000000000000 Bohr
[INPUT]  2 B      1.146750000000   3.671510000000   0.000000000000 AA    2.167043433345   6.938148363602   0.000000000000 Bohr
[INPUT]  3 B     -6.359250000000  -0.662080000000   0.000000000000 AA  -12.017240857640  -1.251149872552   0.000000000000 Bohr
[INPUT]  4 B     -0.104250000000   1.504720000000   0.000000000000 AA   -0.197003948486   2.843508694156   0.000000000000 Bohr
[INPUT]  5 B     -1.355250000000  -0.662080000000   0.000000000000 AA   -2.561051330317  -1.251149872552   0.000000000000 Bohr
[INPUT]  6 B     -2.606250000000   5.838310000000   0.000000000000 AA   -4.925098712148  11.032806930309   0.000000000000 Bohr
[INPUT]  7 B     -2.606250000000  -2.828870000000   0.000000000000 AA   -4.925098712148  -5.345789541998   0.000000000000 Bohr
[INPUT]  8 B     -0.104250000000   5.838310000000   0.000000000000 AA   -0.197003948486  11.032806930309   0.000000000000 Bohr
[INPUT]  9 B     -3.857250000000  -0.662080000000   0.000000000000 AA   -7.289146093979  -1.251149872552   0.000000000000 Bohr
[INPUT] 10 B     -1.355250000000   3.671510000000   0.000000000000 AA   -2.561051330317   6.938148363602   0.000000000000 Bohr
[INPUT] 11 B     -5.108250000000   1.504720000000   0.000000000000 AA   -9.653193475809   2.843508694156   0.000000000000 Bohr
[INPUT] 12 C     -2.606250000000   1.504720000000   0.000000000000 AA   -4.925098712148   2.843508694156   0.000000000000 Bohr
[INPUT] 13 B     -3.857250000000   3.671510000000   0.000000000000 AA   -7.289146093979   6.938148363602   0.000000000000 Bohr
[INPUT] 14 B      2.397750000000   1.504720000000   0.000000000000 AA    4.531090815176   2.843508694156   0.000000000000 Bohr
[INPUT] 15 B     -0.104250000000  -2.828870000000   0.000000000000 AA   -0.197003948486  -5.345789541998   0.000000000000 Bohr
[INPUT] 16 B      1.146750000000  -0.662080000000   0.000000000000 AA    2.167043433345  -1.251149872552   0.000000000000 Bohr
[INPUT] 17 B      2.397750000000  -2.828870000000   0.000000000000 AA    4.531090815176  -5.345789541998   0.000000000000 Bohr
[INPUT] 18 B      3.648750000000  -0.662080000000   0.000000000000 AA    6.895138197007  -1.251149872552   0.000000000000 Bohr
[INPUT] 19 N     -3.857250000000  -3.551140000000   0.000000000000 AA   -7.289146093979  -6.710682029988   0.000000000000 Bohr
[INPUT] 20 N      1.146750000000   5.116050000000   0.000000000000 AA    2.167043433345   9.667933339581   0.000000000000 Bohr
[INPUT] 21 N     -5.108250000000  -1.384340000000   0.000000000000 AA   -9.653193475809  -2.616023463280   0.000000000000 Bohr
[INPUT] 22 N     -0.104250000000   2.949250000000   0.000000000000 AA   -0.197003948486   5.573274772874   0.000000000000 Bohr
[INPUT] 23 N     -6.359250000000   0.782450000000   0.000000000000 AA  -12.017240857640   1.478616206166   0.000000000000 Bohr
[INPUT] 24 N     -3.857250000000   5.116050000000   0.000000000000 AA   -7.289146093979   9.667933339581   0.000000000000 Bohr
[INPUT] 25 N     -2.606250000000  -1.384340000000   0.000000000000 AA   -4.925098712148  -2.616023463280   0.000000000000 Bohr
[INPUT] 26 N     -1.355250000000   5.116050000000   0.000000000000 AA   -2.561051330317   9.667933339581   0.000000000000 Bohr
[INPUT] 27 N      2.397750000000   2.949250000000   0.000000000000 AA    4.531090815176   5.573274772874   0.000000000000 Bohr
[INPUT] 28 N     -1.355250000000  -3.551140000000   0.000000000000 AA   -2.561051330317  -6.710682029988   0.000000000000 Bohr
[INPUT] 29 N     -3.857250000000   0.782450000000   0.000000000000 AA   -7.289146093979   1.478616206166   0.000000000000 Bohr
[INPUT] 30 N     -2.606250000000   2.949250000000   0.000000000000 AA   -4.925098712148   5.573274772874   0.000000000000 Bohr
[INPUT] 31 N     -5.108250000000   2.949250000000   0.000000000000 AA   -9.653193475809   5.573274772874   0.000000000000 Bohr
[INPUT] 32 N      1.146750000000   0.782450000000   0.000000000000 AA    2.167043433345   1.478616206166   0.000000000000 Bohr
[INPUT] 33 N      1.146750000000  -3.551140000000   0.000000000000 AA    2.167043433345  -6.710682029988   0.000000000000 Bohr
[INPUT] 34 N      3.648750000000   0.782450000000   0.000000000000 AA    6.895138197007   1.478616206166   0.000000000000 Bohr
[INPUT] 35 N     -0.104250000000  -1.384340000000   0.000000000000 AA   -0.197003948486  -2.616023463280   0.000000000000 Bohr
[INPUT] 36 N      2.397750000000  -1.384340000000   0.000000000000 AA    4.531090815176  -2.616023463280   0.000000000000 Bohr
[INPUT] 37 H     -4.791270000000   5.640650000000   0.150670000000 AA   -9.054188088845  10.659283664528   0.284725035188 Bohr
[INPUT] 38 H     -6.058140000000   3.473960000000   0.152090000000 AA  -11.448225424273   6.564832967694   0.287408446285 Bohr
[INPUT] 39 H     -7.231320000000   1.305940000000   0.145030000000 AA  -13.665214319090   2.467868935114   0.274066979846 Bohr
[INPUT] 40 H     -7.278590000000  -1.203250000000   0.011360000000 AA  -13.754541672998  -2.273812959383   0.021467288775 Bohr
[INPUT] 41 H     -6.074200000000  -3.455130000000   0.004470000000 AA  -11.478574425833  -6.529249424768   0.008447075777 Bohr
[INPUT] 42 H     -3.841340000000  -4.836160000000  -0.167800000000 AA   -7.259080551337  -9.139017894577  -0.317096043702 Bohr
[INPUT] 43 H     -1.390490000000  -4.875290000000  -0.168340000000 AA   -2.627645278946  -9.212962877831  -0.318116495809 Bohr
[INPUT] 44 H      1.154240000000  -4.942110000000  -0.180780000000 AA    2.181197482018  -9.339234377474  -0.341624688799 Bohr
[INPUT] 45 H      3.514200000000  -3.451880000000  -0.179570000000 AA    6.640875546947  -6.523107814864  -0.339338120188 Bohr
[INPUT] 46 H      4.653750000000  -1.225360000000  -0.161960000000 AA    8.794312952195  -2.315594803997  -0.306060043135 Bohr
[INPUT] 47 H      4.763870000000   1.417920000000  -0.016500000000 AA    9.002409593032   2.679480466543  -0.031180481055 Bohr
[INPUT] 48 H      3.488950000000   3.549970000000  -0.018880000000 AA    6.593159962301   6.708471050422  -0.035678029232 Bohr
[INPUT] 49 H      2.299140000000   5.586530000000  -0.041160000000 AA    4.344744922033  10.557011686666  -0.077781127287 Bohr
[INPUT] 50 H     -0.213510000000   7.039830000000   0.165260000000 AA   -0.403475424856  13.303350663497   0.312296139346 Bohr
[INPUT] 51 H     -2.767810000000   6.994250000000   0.163990000000 AA   -5.230402864832  13.217216946739   0.309896187167 Bohr

nuclear repulsion = 1552.67269971021
number of shells = 189
number of NR pGTOs = 681
number of NR cGTOs = 363
basis = {'H': 'ccpvdz', 'B': 'stuttgartdz', 'C': 'stuttgartdz', 'N': 'stuttgartdz'}
ecp = stuttgartdz
CPU time:         4.65
Create scanner for <class 'pyscf.grad.rhf.Gradients'>
Create scanner for <class 'pyscf.scf.hf.RHF'>
0 Internal coordinates:
0 * Number of fragments: 1
0 * Number of internal coordinates: 330
0 * Number of strong bonds: 60
0 * Number of strong angles: 102
0 * Number of strong dihedrals: 168
New geometry (unit Bohr)
   1 B     -9.653193475809  -5.345789541998   0.000000000000
   2 B      2.167043433345   6.938148363602   0.000000000000
   3 B    -12.017240857640  -1.251149872552   0.000000000000
   4 B     -0.197003948486   2.843508694156   0.000000000000
   5 B     -2.561051330317  -1.251149872552   0.000000000000
   6 B     -4.925098712148  11.032806930309   0.000000000000
   7 B     -4.925098712148  -5.345789541998   0.000000000000
   8 B     -0.197003948486  11.032806930309   0.000000000000
   9 B     -7.289146093979  -1.251149872552   0.000000000000
  10 B     -2.561051330317   6.938148363602   0.000000000000
  11 B     -9.653193475809   2.843508694156   0.000000000000
  12 C     -4.925098712148   2.843508694156   0.000000000000
  13 B     -7.289146093979   6.938148363602   0.000000000000
  14 B      4.531090815176   2.843508694156   0.000000000000
  15 B     -0.197003948486  -5.345789541998   0.000000000000
  16 B      2.167043433345  -1.251149872552   0.000000000000
  17 B      4.531090815176  -5.345789541998   0.000000000000
  18 B      6.895138197007  -1.251149872552   0.000000000000
  19 N     -7.289146093979  -6.710682029988   0.000000000000
  20 N      2.167043433345   9.667933339581   0.000000000000
  21 N     -9.653193475809  -2.616023463280   0.000000000000
  22 N     -0.197003948486   5.573274772874   0.000000000000
  23 N    -12.017240857640   1.478616206166   0.000000000000
  24 N     -7.289146093979   9.667933339581   0.000000000000
  25 N     -4.925098712148  -2.616023463280   0.000000000000
  26 N     -2.561051330317   9.667933339581   0.000000000000
  27 N      4.531090815176   5.573274772874   0.000000000000
  28 N     -2.561051330317  -6.710682029988   0.000000000000
  29 N     -7.289146093979   1.478616206166   0.000000000000
  30 N     -4.925098712148   5.573274772874   0.000000000000
  31 N     -9.653193475809   5.573274772874   0.000000000000
  32 N      2.167043433345   1.478616206166   0.000000000000
  33 N      2.167043433345  -6.710682029988   0.000000000000
  34 N      6.895138197007   1.478616206166   0.000000000000
  35 N     -0.197003948486  -2.616023463280   0.000000000000
  36 N      4.531090815176  -2.616023463280   0.000000000000
  37 H     -9.054188088845  10.659283664528   0.284725035188
  38 H    -11.448225424273   6.564832967694   0.287408446285
  39 H    -13.665214319090   2.467868935114   0.274066979846
  40 H    -13.754541672998  -2.273812959383   0.021467288775
  41 H    -11.478574425833  -6.529249424768   0.008447075777
  42 H     -7.259080551337  -9.139017894577  -0.317096043702
  43 H     -2.627645278946  -9.212962877831  -0.318116495809
  44 H      2.181197482018  -9.339234377474  -0.341624688799
  45 H      6.640875546947  -6.523107814864  -0.339338120188
  46 H      8.794312952195  -2.315594803997  -0.306060043135
  47 H      9.002409593032   2.679480466543  -0.031180481055
  48 H      6.593159962301   6.708471050422  -0.035678029232
  49 H      4.344744922033  10.557011686666  -0.077781127287
  50 H     -0.403475424856  13.303350663497   0.312296139346
  51 H     -5.230402864832  13.217216946739   0.309896187167


******** <class 'pyscf.scf.hf.as_scanner.<locals>.SCF_Scanner'> flags ********
method = SCF_Scanner-RHF
initial guess = minao
damping factor = 0
level shift factor = 0
DIIS = <class 'pyscf.scf.diis.CDIIS'>
DIIS start cycle = 1
DIIS space = 8
SCF tol = 1e-09
SCF gradient tol = None
max. SCF cycles = 50
direct_scf = False
chkfile to save SCF result = /tmp/tmp24p1wxno
max_memory 24000 MB (current use 75 MB)
Set gradient conv threshold to 3.16228e-05
init E= -195.440632275583
  HOMO = 0.173119593578988  LUMO = 0.189004624978398
cycle= 1 E= -227.599876487795  delta_E= -32.2  |g|= 4.88  |ddm|= 15.4
  HOMO = -0.468624714681218  LUMO = -0.429995047721834
cycle= 2 E= -231.137582672901  delta_E= -3.54  |g|= 3.85  |ddm|= 10.3
  HOMO = -0.136038155735484  LUMO = -0.0953917475443437
cycle= 3 E= -234.148519045942  delta_E= -3.01  |g|=  1.9  |ddm|= 6.01
  HOMO = -0.151704406496679  LUMO = -0.114064120419164
cycle= 4 E= -236.097588748983  delta_E= -1.95  |g|= 0.456  |ddm|= 4.71
  HOMO = -0.145237947727956  LUMO = 0.0779058245144607
cycle= 5 E= -236.191622324943  delta_E= -0.094  |g|= 0.187  |ddm|= 0.931
  HOMO = -0.175611629504611  LUMO = 0.0923142232639143
cycle= 6 E= -236.205623642998  delta_E= -0.014  |g|= 0.0952  |ddm|= 0.393
  HOMO = -0.178527808332969  LUMO = 0.0924227195285127
cycle= 7 E= -236.209664586913  delta_E= -0.00404  |g|= 0.0359  |ddm|= 0.207
  HOMO = -0.174699615251813  LUMO = 0.0980819830590571
cycle= 8 E= -236.210356741416  delta_E= -0.000692  |g|= 0.0096  |ddm|= 0.101
  HOMO = -0.176980404215291  LUMO = 0.0982662940352382
cycle= 9 E= -236.21041506961  delta_E= -5.83e-05  |g|= 0.00255  |ddm|= 0.0353
  HOMO = -0.177176792123832  LUMO = 0.0982079576079991
cycle= 10 E= -236.210420260519  delta_E= -5.19e-06  |g|= 0.00124  |ddm|= 0.00842
  HOMO = -0.17708347372194  LUMO = 0.0982203625977717
cycle= 11 E= -236.21042262022  delta_E= -2.36e-06  |g|= 0.00079  |ddm|= 0.0052
  HOMO = -0.177036978694324  LUMO = 0.0982360761091171
cycle= 12 E= -236.21042481309  delta_E= -2.19e-06  |g|= 0.000589  |ddm|= 0.00621
  HOMO = -0.17705820793373  LUMO = 0.0982356187345124
cycle= 13 E= -236.210426454433  delta_E= -1.64e-06  |g|= 0.000429  |ddm|= 0.00616
  HOMO = -0.177035183705145  LUMO = 0.0982538399938355
cycle= 14 E= -236.210427960247  delta_E= -1.51e-06  |g|= 0.000194  |ddm|= 0.00982
  HOMO = -0.177055974410322  LUMO = 0.0982349357016522
cycle= 15 E= -236.210428199991  delta_E= -2.4e-07  |g|= 7.25e-05  |ddm|= 0.00455
  HOMO = -0.177055299610229  LUMO = 0.0982304441330859
cycle= 16 E= -236.210428213481  delta_E= -1.35e-08  |g|= 2.88e-05  |ddm|= 0.00107
  HOMO = -0.177051264294205  LUMO = 0.0982320885082525
cycle= 17 E= -236.210428214333  delta_E= -8.52e-10  |g|= 9.35e-06  |ddm|= 0.000207
  HOMO = -0.177052738748055  LUMO = 0.0982312709346524
Extra cycle  E= -236.210428214415  delta_E= -8.16e-11  |g|= 5.18e-06  |ddm|= 3.45e-05
converged SCF energy = -236.210428214415


******** <class 'pyscf.grad.rhf.as_scanner.<locals>.SCF_GradScanner'> for <class 'pyscf.scf.hf.as_scanner.<locals>.SCF_Scanner'> ********
max_memory 24000 MB (current use 18214 MB)
--------------- SCF_Scanner gradients ---------------
         x                y                z
0 B    -0.0259006819     0.0154019067     0.0005074237
1 B    -0.0330807322    -0.0101111394     0.0010095360
2 B    -0.0625477209    -0.0536222648    -0.0005714697
3 B    -0.0103311917     0.0923225807     0.0004150915
4 B    -0.0843773184    -0.0368698550     0.0004425246
5 B     0.0291921015     0.0032528808    -0.0166127184
6 B    -0.0097898060     0.0425991036     0.0011822643
7 B    -0.0172323710    -0.0225147328    -0.0174632816
8 B    -0.0152080638     0.0110615081     0.0000576498
9 B    -0.0151803881     0.0093449031     0.0018111641
10 B     0.0337233300    -0.0173968288     0.0006055436
11 C     0.1403198496    -0.0808267396    -0.0009415091
12 B     0.0356292069    -0.0223637326     0.0013004606
13 B    -0.0287630162    -0.0146869660    -0.0010533300
14 B    -0.0002752324     0.0384403359     0.0006572114
15 B     0.0105824676    -0.0062539344    -0.0018421946
16 B    -0.0279428479     0.0365909649     0.0223414403
17 B    -0.0024140405    -0.0214764931     0.0151012096
18 N     0.0068392774     0.1455774809     0.0319508809
19 N    -0.1269152401    -0.0559247200     0.0135859840
20 N    -0.0083485775    -0.0098932173     0.0007210898
21 N     0.0255460409     0.0098387232    -0.0009347173
22 N     0.0069887171    -0.0030786077    -0.0164085226
23 N     0.0495975572    -0.0194670289    -0.0155854386
24 N     0.0044625776    -0.0271657688    -0.0030086583
25 N     0.0076129955     0.0091172799     0.0131299801
26 N    -0.1206804452    -0.0731581799     0.0039396592
27 N     0.0131190556     0.1539737885     0.0323919640
28 N    -0.0350433571    -0.0849975749     0.0036611914
29 N     0.0561479322     0.0723549449     0.0032675337
30 N     0.0567915730    -0.0267253114    -0.0260931227
31 N    -0.0278456083    -0.0167737635    -0.0000752562
32 N    -0.0189854904     0.1639654013     0.0260984075
33 N    -0.1373527536    -0.0669613621    -0.0034422489
34 N     0.0002616904     0.0333350269    -0.0028053569
35 N     0.0009815423     0.0016517737    -0.0140816361
36 H    -0.0579042001     0.0289964220     0.0129125623
37 H    -0.0642210833     0.0329412958     0.0145079705
38 H    -0.0199570578     0.0159988198     0.0088628656
39 H     0.0770772978     0.0443666959    -0.0012232594
40 H     0.0235389246     0.0065693808     0.0008527108
41 H     0.0033028846    -0.1293432937    -0.0200026856
42 H    -0.0059941775    -0.1319913899    -0.0193396123
43 H     0.0000998618    -0.1337551318    -0.0193147949
44 H     0.0339263391    -0.0176090114    -0.0115844974
45 H    -0.0136027183     0.0095873202    -0.0055735426
46 H     0.1110896448     0.0644795083    -0.0012158089
47 H     0.1084319017     0.0585045719    -0.0022759007
48 H     0.1192972790     0.0347981907    -0.0055411033
49 H    -0.0097800495     0.0107651300     0.0089375762
50 H    -0.0144579138    -0.0102499885     0.0057317744
----------------------------------------------
1 Energy: -236.210428214
1 Minimization on sphere was performed:
1 * Trust radius: 0.3
1 * Number of negative eigenvalues: 0
1 * Lowest eigenvalue: 0.00461
1 * lambda: -1.54
1 Quadratic step: RMS: 0.0165, max: 0.0719
1 * Predicted energy change: -0.155
1 Total step: RMS: 0.0165, max: 0.0719
1 Perfect transformation to cartesians in 5 iterations
1 * RMS(dcart): 3.89e-08, RMS(dq): 2.58e-08
1 Convergence criteria:
1 * Gradient RMS: 0.0482 > 0.0003 => no
1 * Gradient maximum: 0.164 > 0.00045 => no
1 * Minimization on sphere: Minimization on sphere => no
New geometry (unit Bohr)
   1 B     -9.614400327762  -5.300805756514  -0.016467560578
   2 B      2.150017513579   6.879092681840  -0.012103344994
   3 B    -12.034140715734  -1.235624007623   0.018004338694
   4 B     -0.149041749366   2.710463402245   0.001469472857
   5 B     -2.414638612475  -1.242588106712  -0.003186259118
   6 B     -4.953079217970  11.054539912158  -0.009098057134
   7 B     -4.875661644413  -5.317084739126  -0.025591032907
   8 B     -0.217191251669  10.984021994003  -0.027785635373
   9 B     -7.277106934954  -1.162584946161   0.001297371505
  10 B     -2.641873294059   6.894650686729  -0.006562583355
  11 B     -9.805216335647   2.926595388107   0.025727024117
  12 C     -5.145243385522   2.978036042882   0.006489617077
  13 B     -7.444295180677   7.039971107978   0.013989144860
  14 B      4.620993269988   2.818162699080   0.011401349391
  15 B     -0.122962997134  -5.431976885725  -0.015474580666
  16 B      2.283087606679  -1.324538099634   0.007829547189
  17 B      4.624724767022  -5.437432539082   0.007015916267
  18 B      7.013495967257  -1.284592135360   0.025761441370
  19 N     -7.255071483182  -6.671244418562  -0.031920881480
  20 N      2.141069131849   9.617876136355  -0.026360637392
  21 N     -9.630178270135  -2.562149044093   0.001019542668
  22 N     -0.240750674995   5.479661877651  -0.006618933059
  23 N    -12.120623896942   1.494126766341   0.031382754392
  24 N     -7.365867837255   9.764780044852   0.006768754812
  25 N     -4.856481659422  -2.543848680113  -0.010197814326
  26 N     -2.603914878797   9.634042384804  -0.015574184810
  27 N      4.553647612642   5.555815185120  -0.001092936555
  28 N     -2.528440454689  -6.742045423097  -0.030468730077
  29 N     -7.416060149280   1.594162014537   0.012735645569
  30 N     -5.094568956226   5.638134063285   0.004962890259
  31 N     -9.819159816857   5.670043729165   0.028629459768
  32 N      2.267554751165   1.413146593328   0.008382488406
  33 N      2.250067769576  -6.812412478112  -0.009909407360
  34 N      7.004275584692   1.460307432428   0.023945074640
  35 N     -0.087069619950  -2.688686520925  -0.003736760782
  36 N      4.646759999679  -2.686291225147   0.015034159705
  37 H     -9.068811547952  10.798495964368   0.289068036677
  38 H    -11.582515653957   6.643793272123   0.315240250650
  39 H    -13.788530787813   2.422660794514   0.310175849387
  40 H    -13.783182996898  -2.322999245964   0.040134194539
  41 H    -11.454343102993  -6.483227449511  -0.009161323847
  42 H     -7.241138067558  -9.030497634563  -0.350163243689
  43 H     -2.646697362228  -9.171633201477  -0.347528841393
  44 H      2.262567141292  -9.369140845671  -0.346206882287
  45 H      6.713784510970  -6.612640314710  -0.318064319179
  46 H      8.927379013906  -2.340349026999  -0.269947697173
  47 H      9.048516686830   2.637475527863  -0.000191934851
  48 H      6.533314953706   6.707951151511  -0.036519431352
  49 H      4.250612071057  10.504752019092  -0.108682158736
  50 H     -0.397955563276  13.252509399407   0.271423770552
  51 H     -5.178149407991  13.254070870537   0.292159200298

WARN: Large deviations found between the input molecule and the molecule from chkfile
Initial guess density matrix may have large error.



******** <class 'pyscf.scf.hf.as_scanner.<locals>.SCF_Scanner'> flags ********
method = SCF_Scanner-RHF
initial guess = minao
damping factor = 0
level shift factor = 0
DIIS = <class 'pyscf.scf.diis.CDIIS'>
DIIS start cycle = 1
DIIS space = 8
SCF tol = 1e-09
SCF gradient tol = None
max. SCF cycles = 50
direct_scf = False
chkfile to save SCF result = /tmp/tmp24p1wxno
max_memory 24000 MB (current use 18362 MB)
Set gradient conv threshold to 3.16228e-05
init E= -236.281796782047
  HOMO = -0.196342757282829  LUMO = 0.13424609762705
cycle= 1 E= -236.314870746128  delta_E= -0.0331  |g|= 0.0972  |ddm|= 0.602
  HOMO = -0.222389149551854  LUMO = 0.0999688126138279
cycle= 2 E= -236.317687982279  delta_E= -0.00282  |g|= 0.0464  |ddm|= 0.309
  HOMO = -0.207491049257791  LUMO = 0.106981804256907
cycle= 3 E= -236.318246204672  delta_E= -0.000558  |g|= 0.0079  |ddm|= 0.0683
  HOMO = -0.205098710935018  LUMO = 0.108155657803389
cycle= 4 E= -236.318277373038  delta_E= -3.12e-05  |g|= 0.00295  |ddm|= 0.029
  HOMO = -0.205689967244985  LUMO = 0.107808926572922
cycle= 5 E= -236.318282599257  delta_E= -5.23e-06  |g|= 0.000784  |ddm|= 0.015
  HOMO = -0.205628056507596  LUMO = 0.107889192090149
cycle= 6 E= -236.318283115902  delta_E= -5.17e-07  |g|= 0.000309  |ddm|= 0.00495
  HOMO = -0.20563621911135  LUMO = 0.107887790767013
cycle= 7 E= -236.318283218801  delta_E= -1.03e-07  |g|= 0.00013  |ddm|= 0.00208
  HOMO = -0.20563966015034  LUMO = 0.107884779714094
cycle= 8 E= -236.318283249792  delta_E= -3.1e-08  |g|= 7.83e-05  |ddm|= 0.000809
  HOMO = -0.205636369859741  LUMO = 0.107889544341984
cycle= 9 E= -236.318283266572  delta_E= -1.68e-08  |g|= 4.71e-05  |ddm|= 0.000531
  HOMO = -0.20563579817885  LUMO = 0.107889581821119
cycle= 10 E= -236.318283274902  delta_E= -8.33e-09  |g|= 2.23e-05  |ddm|= 0.000478
  HOMO = -0.205637392541073  LUMO = 0.107888173181629
cycle= 11 E= -236.318283276442  delta_E= -1.54e-09  |g|= 1.02e-05  |ddm|= 0.000216
  HOMO = -0.205637083498243  LUMO = 0.107888428692003
cycle= 12 E= -236.318283276689  delta_E= -2.47e-10  |g|= 3.45e-06  |ddm|= 9.98e-05
  HOMO = -0.205637100935003  LUMO = 0.107888358486827
Extra cycle  E= -236.318283276703  delta_E= -1.36e-11  |g|= 2.03e-06  |ddm|= 1.18e-05
converged SCF energy = -236.318283276703


******** <class 'pyscf.grad.rhf.as_scanner.<locals>.SCF_GradScanner'> for <class 'pyscf.scf.hf.as_scanner.<locals>.SCF_Scanner'> ********
max_memory 24000 MB (current use 18344 MB)
--------------- SCF_Scanner gradients ---------------
         x                y                z
0 B    -0.0225701657     0.0135851843     0.0004792491
1 B    -0.0230523469    -0.0062960024     0.0009304314
2 B    -0.0480563828    -0.0419877549    -0.0006735187
3 B     0.0078949458     0.0750136388     0.0004478824
4 B    -0.0593753410    -0.0441071165     0.0003240273
5 B     0.0248712527     0.0044240550    -0.0165500805
6 B    -0.0076904861     0.0307212063     0.0009692459
7 B    -0.0132153588    -0.0192253425    -0.0171242676
8 B    -0.0198667916     0.0110105257     0.0001610153
9 B    -0.0177831561     0.0127041980     0.0017472651
10 B     0.0300838942    -0.0145608414     0.0006300078
11 C     0.0772742318    -0.0449851340    -0.0006203716
12 B     0.0305230843    -0.0209716888     0.0012604708
13 B    -0.0230596251    -0.0125180437    -0.0010112435
14 B     0.0004855198     0.0314786621     0.0005144211
15 B     0.0095964538    -0.0058728202    -0.0016985725
16 B    -0.0242225049     0.0297876318     0.0214731091
17 B     0.0014985246    -0.0190284279     0.0151175018
18 N     0.0050206307     0.1350703490     0.0316046710
19 N    -0.1166221173    -0.0482013360     0.0137040509
20 N    -0.0046742994    -0.0081185719     0.0006333682
21 N     0.0245486935     0.0048823321    -0.0010007693
22 N     0.0028981619    -0.0014076235    -0.0152792631
23 N     0.0378454521    -0.0143252709    -0.0137033833
24 N     0.0094763812    -0.0229288872    -0.0029492133
25 N     0.0061054201     0.0061176583     0.0127898293
26 N    -0.1072203876    -0.0659204456     0.0038126286
27 N     0.0135532538     0.1427409562     0.0321784177
28 N    -0.0248481640    -0.0643547953     0.0034550918
29 N     0.0443540256     0.0537262967     0.0027809824
30 N     0.0414487437    -0.0181654960    -0.0238448587
31 N    -0.0219938347    -0.0169434535    -0.0000988783
32 N    -0.0147929965     0.1549342439     0.0260672690
33 N    -0.1236744933    -0.0619853954    -0.0038085701
34 N     0.0032311450     0.0290840043    -0.0026653736
35 N    -0.0036122358     0.0038321050    -0.0137409767
36 H    -0.0477993765     0.0249989503     0.0115219242
37 H    -0.0542775480     0.0277628761     0.0130569577
38 H    -0.0151622903     0.0129618752     0.0081340968
39 H     0.0579543749     0.0352738026    -0.0010605705
40 H     0.0199374755     0.0050889480     0.0008656996
41 H     0.0024731015    -0.1246585040    -0.0200628190
42 H    -0.0084056333    -0.1287343494    -0.0194472716
43 H    -0.0001533322    -0.1332345824    -0.0194773551
44 H     0.0307861068    -0.0161438571    -0.0108807948
45 H    -0.0118855841     0.0084425017    -0.0057845953
46 H     0.1065075574     0.0627627668    -0.0008207927
47 H     0.1012561388     0.0573764053    -0.0022198402
48 H     0.1125573023     0.0337022329    -0.0056854988
49 H    -0.0089941528     0.0094914943     0.0086901230
50 H    -0.0137943197    -0.0082605871     0.0059023057
----------------------------------------------
2 Energy: -236.318283277
2 Hessian update information:
2 * Change: RMS: 0.00162, max: 0.0408
2 Trust update: Fletcher's parameter: 0.698
2 Linear interpolation:
2 * Energies: -236.31828, -236.21043
2 * Derivatives: 0.131, 0.171
2 * No fit succeeded, staying in new point
2 Minimization on sphere was performed:
2 * Trust radius: 0.3
2 * Number of negative eigenvalues: 0
2 * Lowest eigenvalue: 0.0046
2 * lambda: -1.22
2 Quadratic step: RMS: 0.0165, max: 0.102
2 * Predicted energy change: -0.121
2 Total step: RMS: 0.0165, max: 0.102
2 Perfect transformation to cartesians in 4 iterations
2 * RMS(dcart): 2.91e-07, RMS(dq): 2.27e-07
2 Convergence criteria:
2 * Gradient RMS: 0.0426 > 0.0003 => no
2 * Gradient maximum: 0.155 > 0.00045 => no
2 * Minimization on sphere: Minimization on sphere => no
New geometry (unit Bohr)
   1 B     -9.578470556392  -5.262156782036  -0.034739464664
   2 B      2.125954505941   6.824431912239  -0.025254193781
   3 B    -12.032089587575  -1.217106598551   0.038409587608
   4 B     -0.146629751785   2.587586833987   0.002851224876
   5 B     -2.301280677264  -1.203518358879  -0.007049512920
   6 B     -4.971866553429  11.058336783843  -0.020348259016
   7 B     -4.833821199555  -5.287900981910  -0.054808239482
   8 B     -0.233339623874  10.940503911206  -0.058854045816
   9 B     -7.254459394115  -1.091587724324   0.002731350377
  10 B     -2.702643689880   6.850133102542  -0.014018597390
  11 B     -9.897787575823   2.986521037329   0.054636352736
  12 C     -5.273889517239   3.060291832405   0.013464869793
  13 B     -7.548661897495   7.102646212978   0.029008933521
  14 B      4.672486617665   2.800382008626   0.024827807278
  15 B     -0.073449723307  -5.492503424864  -0.034445708794
  16 B      2.362516092847  -1.377925584283   0.016203759888
  17 B      4.689658779154  -5.504823703254   0.013901385594
  18 B      7.095025374516  -1.303198598331   0.055531932501
  19 N     -7.224932247504  -6.635080914014  -0.067923356713
  20 N      2.114239659495   9.571235391257  -0.055416154957
  21 N     -9.601214185900  -2.516057155096   0.002256949269
  22 N     -0.287296360411   5.393529358429  -0.013975538361
  23 N    -12.175138030326   1.507824864020   0.066885388391
  24 N     -7.413827286271   9.820399729749   0.013014687997
  25 N     -4.797024070253  -2.476024146952  -0.021549072214
  26 N     -2.636127361298   9.598262573735  -0.033452693649
  27 N      4.556343440890   5.538432683866  -0.001666638639
  28 N     -2.504942173461  -6.760472893272  -0.066110243350
  29 N     -7.483543004437   1.682755507355   0.027019540421
  30 N     -5.211143415608   5.665494328204   0.010331784167
  31 N     -9.924951056654   5.732923216053   0.060343873193
  32 N      2.324870414242   1.362730119099   0.017736218045
  33 N      2.307264039668  -6.886671577957  -0.022728789410
  34 N      7.072383470210   1.451595868438   0.052187339851
  35 N     -0.012100259631  -2.734762898169  -0.009032403029
  36 N      4.728083128310  -2.736576930206   0.031742107949
  37 H     -9.059441411072  10.877933022676   0.291716833593
  38 H    -11.651668038210   6.687054719725   0.345589894837
  39 H    -13.853041062940   2.389835375369   0.350898351129
  40 H    -13.800151182937  -2.355076442886   0.061283884358
  41 H    -11.436608178479  -6.440444557318  -0.028240536876
  42 H     -7.224142666820  -8.900408885920  -0.384033961070
  43 H     -2.657265393188  -9.090380335971  -0.378874984640
  44 H      2.319517468135  -9.341763854623  -0.350075231606
  45 H      6.754839868079  -6.672826209644  -0.294093679301
  46 H      9.025169047397  -2.350466977422  -0.227379691660
  47 H      9.032562161228   2.593669230124   0.036454183423
  48 H      6.441393486902   6.685187719990  -0.036295511577
  49 H      4.136274762770  10.447212622205  -0.141400480124
  50 H     -0.388098749078  13.205792103265   0.224733080149
  51 H     -5.130031919127  13.269979884587   0.269437791271

WARN: Large deviations found between the input molecule and the molecule from chkfile
Initial guess density matrix may have large error.



******** <class 'pyscf.scf.hf.as_scanner.<locals>.SCF_Scanner'> flags ********
method = SCF_Scanner-RHF
initial guess = minao
damping factor = 0
level shift factor = 0
DIIS = <class 'pyscf.scf.diis.CDIIS'>
DIIS start cycle = 1
DIIS space = 8
SCF tol = 1e-09
SCF gradient tol = None
max. SCF cycles = 50
direct_scf = False
chkfile to save SCF result = /tmp/tmp24p1wxno
max_memory 24000 MB (current use 18371 MB)
Set gradient conv threshold to 3.16228e-05
init E= -236.47929622783
  HOMO = -0.215026496353998  LUMO = 0.132474605292183
cycle= 1 E= -236.414720840834  delta_E= 0.0646  |g|= 0.0776  |ddm|= 0.375
  HOMO = -0.234544538202603  LUMO = 0.108641396384644
cycle= 2 E= -236.416373185202  delta_E= -0.00165  |g|= 0.0406  |ddm|= 0.198
  HOMO = -0.228462107731965  LUMO = 0.110659857194658
cycle= 3 E= -236.4167604038  delta_E= -0.000387  |g|= 0.00617  |ddm|= 0.0418
  HOMO = -0.226695834098047  LUMO = 0.111467102799946
cycle= 4 E= -236.416779248643  delta_E= -1.88e-05  |g|= 0.00203  |ddm|= 0.0189
  HOMO = -0.227127002890445  LUMO = 0.11127419520121
cycle= 5 E= -236.416781542418  delta_E= -2.29e-06  |g|= 0.000518  |ddm|= 0.00792
  HOMO = -0.227012463246438  LUMO = 0.11134602666787
cycle= 6 E= -236.416781729234  delta_E= -1.87e-07  |g|= 0.000196  |ddm|= 0.00225
  HOMO = -0.227025178405915  LUMO = 0.111337542905264
cycle= 7 E= -236.416781763714  delta_E= -3.45e-08  |g|= 8.48e-05  |ddm|= 0.000829
  HOMO = -0.227036175667761  LUMO = 0.11133016386413
cycle= 8 E= -236.416781774244  delta_E= -1.05e-08  |g|= 4.86e-05  |ddm|= 0.000361
  HOMO = -0.227030028303264  LUMO = 0.111334101990953
cycle= 9 E= -236.416781779587  delta_E= -5.34e-09  |g|= 2.77e-05  |ddm|= 0.000266
  HOMO = -0.227030536617854  LUMO = 0.11133371967848
cycle= 10 E= -236.416781781973  delta_E= -2.39e-09  |g|= 9.71e-06  |ddm|= 0.000251
  HOMO = -0.227031717401452  LUMO = 0.111332896721995
cycle= 11 E= -236.416781782194  delta_E= -2.21e-10  |g|= 3.81e-06  |ddm|= 7.75e-05
  HOMO = -0.227031205759636  LUMO = 0.111333298996303
Extra cycle  E= -236.416781782206  delta_E= -1.21e-11  |g|= 2.25e-06  |ddm|= 1.02e-05
converged SCF energy = -236.416781782206


******** <class 'pyscf.grad.rhf.as_scanner.<locals>.SCF_GradScanner'> for <class 'pyscf.scf.hf.as_scanner.<locals>.SCF_Scanner'> ********
max_memory 24000 MB (current use 18371 MB)
--------------- SCF_Scanner gradients ---------------
         x                y                z
0 B    -0.0189063052     0.0113968210     0.0003935173
1 B    -0.0145482713    -0.0025013487     0.0007923149
2 B    -0.0355878662    -0.0305788478    -0.0006922912
3 B     0.0121610996     0.0605604364     0.0006361353
4 B    -0.0436509442    -0.0406364410     0.0004708757
5 B     0.0208520768     0.0049854913    -0.0164082457
6 B    -0.0065521672     0.0202716627     0.0005603329
7 B    -0.0088716393    -0.0154450711    -0.0167262743
8 B    -0.0200433674     0.0106103383     0.0002308337
9 B    -0.0181125888     0.0124717660     0.0016631946
10 B     0.0249012495    -0.0118875348     0.0007536620
11 C     0.0401246201    -0.0235829070    -0.0004670361
12 B     0.0248546491    -0.0180147741     0.0012915087
13 B    -0.0169211857    -0.0089672480    -0.0009809792
14 B     0.0001745667     0.0234879954     0.0001832670
15 B     0.0077416875    -0.0050764441    -0.0015098149
16 B    -0.0197368100     0.0228557725     0.0203826534
17 B     0.0044702775    -0.0162522088     0.0151875804
18 N     0.0028851099     0.1187171232     0.0303085267
19 N    -0.1005773992    -0.0375776960     0.0134339436
20 N    -0.0017224809    -0.0062660423     0.0005484062
21 N     0.0198349808     0.0013989087    -0.0011100430
22 N    -0.0009631585     0.0004836442    -0.0140835654
23 N     0.0240568899    -0.0074853633    -0.0114152563
24 N     0.0106382536    -0.0168623208    -0.0029058363
25 N     0.0043532036     0.0038499988     0.0123898025
26 N    -0.0899427276    -0.0560592623     0.0035314129
27 N     0.0136632609     0.1283170725     0.0312006415
28 N    -0.0091831369    -0.0419143821     0.0034307760
29 N     0.0332595107     0.0299600352     0.0025215582
30 N     0.0259716184    -0.0097115235    -0.0210147505
31 N    -0.0188760615    -0.0176496154    -0.0001768626
32 N    -0.0108715580     0.1430828769     0.0255620602
33 N    -0.1056133022    -0.0540326512    -0.0041889755
34 N     0.0057780357     0.0268784929    -0.0025953443
35 N    -0.0067241534     0.0052760721    -0.0133523554
36 H    -0.0356866263     0.0188709925     0.0097220715
37 H    -0.0413397269     0.0209909331     0.0111875774
38 H    -0.0100841559     0.0098902727     0.0073246142
39 H     0.0416513321     0.0262419183    -0.0009188101
40 H     0.0159628071     0.0034860379     0.0008796551
41 H     0.0016641938    -0.1151557983    -0.0195290831
42 H    -0.0097514512    -0.1215954055    -0.0191567579
43 H    -0.0003016545    -0.1301534414    -0.0194008205
44 H     0.0266666654    -0.0139193594    -0.0100179983
45 H    -0.0098703008     0.0071097316    -0.0060170154
46 H     0.0975225493     0.0584700682    -0.0003327047
47 H     0.0896755706     0.0527193761    -0.0020742108
48 H     0.1005114872     0.0305621644    -0.0056154829
49 H    -0.0080159174     0.0079655147     0.0083970177
50 H    -0.0126667836    -0.0062517400     0.0060619992
----------------------------------------------
3 Energy: -236.416781782
3 Hessian update information:
3 * Change: RMS: 0.000569, max: 0.0191
3 Trust update: Fletcher's parameter: 0.813
3 Linear interpolation:
3 * Energies: -236.41678, -236.31828
3 * Derivatives: 0.109, 0.133
3 * No fit succeeded, staying in new point
3 Minimization on sphere was performed:
3 * Trust radius: 0.6
3 * Number of negative eigenvalues: 0
3 * Lowest eigenvalue: 0.0046
3 * lambda: -0.417
3 Quadratic step: RMS: 0.033, max: 0.247
3 * Predicted energy change: -0.183
3 Total step: RMS: 0.033, max: 0.247
3 Perfect transformation to cartesians in 5 iterations
3 * RMS(dcart): 3.34e-07, RMS(dq): 3.72e-07
3 Convergence criteria:
3 * Gradient RMS: 0.037 > 0.0003 => no
3 * Gradient maximum: 0.143 > 0.00045 => no
3 * Minimization on sphere: Minimization on sphere => no
New geometry (unit Bohr)
   1 B     -9.498108883390  -5.191195047792  -0.076842521517
   2 B      2.056233624665   6.695908331339  -0.055258098314
   3 B    -12.009720580004  -1.192817411264   0.088836865329
   4 B     -0.179709732802   2.354974549576   0.005082299458
   5 B     -2.114810912688  -1.093646593238  -0.017234583319
   6 B     -4.982992040594  11.041050709248  -0.049856642298
   7 B     -4.748410697363  -5.197683615188  -0.124712874849
   8 B     -0.257303851206  10.842599567251  -0.132847221398
   9 B     -7.205941122608  -0.978384195619   0.006460656532
  10 B     -2.792264784265   6.760050279924  -0.032783286932
  11 B    -10.027098410500   3.067829931943   0.124072783839
  12 C     -5.440699237852   3.163616545938   0.029910580306
  13 B     -7.690753011026   7.186922169969   0.062881663958
  14 B      4.717656137669   2.759756878854   0.058735014531
  15 B     -0.001221426634  -5.554394398311  -0.083215205428
  16 B      2.475541795218  -1.455769746513   0.035364203738
  17 B      4.779740937176  -5.594608991927   0.027869122823
  18 B      7.200937442354  -1.327541125189   0.128852444250
  19 N     -7.146671943585  -6.540671459055  -0.152993477731
  20 N      2.052043870974   9.449177518588  -0.123170687609
  21 N     -9.540328820462  -2.440826291496   0.006321176295
  22 N     -0.383860989317   5.221246819922  -0.031611083569
  23 N    -12.240207018959   1.518533928028   0.153035961757
  24 N     -7.461822960678   9.885979451953   0.023937075877
  25 N     -4.689675582995  -2.334823884078  -0.048033310185
  26 N     -2.679082020387   9.518870395850  -0.077611667534
  27 N      4.519910007433   5.482661471584  -0.000998893190
  28 N     -2.462641822070  -6.744937313219  -0.154057586478
  29 N     -7.580077665679   1.806040924982   0.061408330641
  30 N     -5.375690749834   5.699077098473   0.022187369539
  31 N    -10.060040626595   5.812964379930   0.134932325051
  32 N      2.388262919682   1.279379158318   0.040031193782
  33 N      2.385331925510  -6.971761687970  -0.057156573373
  34 N      7.139020585702   1.432406637155   0.123222005109
  35 N      0.093289829535  -2.783999682751  -0.024340276131
  36 N      4.845078501013  -2.809157863073   0.071579336888
  37 H     -9.011595876275  10.982751914155   0.294877756145
  38 H    -11.723521587408   6.738888429845   0.419911578375
  39 H    -13.934161519552   2.322930745906   0.449804704253
  40 H    -13.805664132030  -2.412583730654   0.113816996477
  41 H    -11.382750504651  -6.370113118311  -0.071018114905
  42 H     -7.151031317183  -8.597427564486  -0.461522681785
  43 H     -2.657676418737  -8.846101449587  -0.454237174434
  44 H      2.395803441515  -9.180564551989  -0.361021711264
  45 H      6.796221654685  -6.749832365080  -0.238462343997
  46 H      9.164974013136  -2.354204267797  -0.118520116501
  47 H      8.916124676878   2.494301354088   0.127102775929
  48 H      6.215089928602   6.599065593431  -0.033375016881
  49 H      3.895591856525  10.288024905667  -0.215422221844
  50 H     -0.347798662709  13.102467562672   0.110846356247
  51 H     -5.016013722125  13.270515517419   0.206654917513

WARN: Large deviations found between the input molecule and the molecule from chkfile
Initial guess density matrix may have large error.



******** <class 'pyscf.scf.hf.as_scanner.<locals>.SCF_Scanner'> flags ********
method = SCF_Scanner-RHF
initial guess = minao
damping factor = 0
level shift factor = 0
DIIS = <class 'pyscf.scf.diis.CDIIS'>
DIIS start cycle = 1
DIIS space = 8
SCF tol = 1e-09
SCF gradient tol = None
max. SCF cycles = 50
direct_scf = False
chkfile to save SCF result = /tmp/tmp24p1wxno
max_memory 24000 MB (current use 18371 MB)
Set gradient conv threshold to 3.16228e-05
init E= -236.879801761655
  HOMO = -0.219773235772235  LUMO = 0.158982531539866
cycle= 1 E= -236.569333547245  delta_E= 0.31  |g|= 0.145  |ddm|= 0.595
  HOMO = -0.267420727208704  LUMO = 0.105202571253208
cycle= 2 E= -236.575131780172  delta_E= -0.0058  |g|= 0.0766  |ddm|= 0.325
  HOMO = -0.261286399186799  LUMO = 0.108577240233938
cycle= 3 E= -236.576473049337  delta_E= -0.00134  |g|= 0.0116  |ddm|= 0.0706
  HOMO = -0.258850743093671  LUMO = 0.110631237110358
cycle= 4 E= -236.57653907112  delta_E= -6.6e-05  |g|= 0.00361  |ddm|= 0.0307
  HOMO = -0.259485919011274  LUMO = 0.110275711084677
cycle= 5 E= -236.57654561978  delta_E= -6.55e-06  |g|= 0.000996  |ddm|= 0.0105
  HOMO = -0.259297459968161  LUMO = 0.110360790444533
cycle= 6 E= -236.576546211242  delta_E= -5.91e-07  |g|= 0.000373  |ddm|= 0.00305
  HOMO = -0.259285582035056  LUMO = 0.110362781367872
cycle= 7 E= -236.576546317357  delta_E= -1.06e-07  |g|= 0.000153  |ddm|= 0.0011
  HOMO = -0.259312141827008  LUMO = 0.110345554300526
cycle= 8 E= -236.576546347389  delta_E= -3e-08  |g|= 7.59e-05  |ddm|= 0.000566
  HOMO = -0.259299244972474  LUMO = 0.11035134532968
cycle= 9 E= -236.576546357907  delta_E= -1.05e-08  |g|= 4.09e-05  |ddm|= 0.000349
  HOMO = -0.259300304095962  LUMO = 0.110351095152529
cycle= 10 E= -236.576546361794  delta_E= -3.89e-09  |g|= 1.43e-05  |ddm|= 0.000281
  HOMO = -0.259302966709395  LUMO = 0.110349696681555
cycle= 11 E= -236.576546362184  delta_E= -3.89e-10  |g|= 5.07e-06  |ddm|= 9.21e-05
  HOMO = -0.259301613713214  LUMO = 0.110350328116001
Extra cycle  E= -236.576546362207  delta_E= -2.3e-11  |g|= 2.83e-06  |ddm|= 1.27e-05
converged SCF energy = -236.576546362207


******** <class 'pyscf.grad.rhf.as_scanner.<locals>.SCF_GradScanner'> for <class 'pyscf.scf.hf.as_scanner.<locals>.SCF_Scanner'> ********
max_memory 24000 MB (current use 18371 MB)
--------------- SCF_Scanner gradients ---------------
         x                y                z
0 B    -0.0119276844     0.0074173150     0.0001038284
1 B    -0.0027012799     0.0023108116     0.0004474469
2 B    -0.0192115168    -0.0139017240    -0.0004801539
3 B     0.0101945504     0.0324737298     0.0010813946
4 B    -0.0188842312    -0.0248358584     0.0011215283
5 B     0.0140232720     0.0049750689    -0.0157148933
6 B    -0.0047495311     0.0053647204    -0.0005834395
7 B    -0.0017988311    -0.0091144825    -0.0157982766
8 B    -0.0167929682     0.0090997241     0.0002457752
9 B    -0.0162989014     0.0098935388     0.0014408251
10 B     0.0143820527    -0.0079024732     0.0011527651
11 C    -0.0036204829     0.0023011747    -0.0000841872
12 B     0.0149146105    -0.0106536506     0.0013841530
13 B    -0.0071788142    -0.0026433443    -0.0009260361
14 B    -0.0010135957     0.0098128959    -0.0008268407
15 B     0.0037850706    -0.0027981858    -0.0010787622
16 B    -0.0106055543     0.0110863460     0.0178204189
17 B     0.0073444467    -0.0109281943     0.0151838838
18 N    -0.0000315259     0.0644052286     0.0234592686
19 N    -0.0509121562    -0.0108630767     0.0113897091
20 N     0.0026126531    -0.0030185735     0.0003369453
21 N     0.0110901841    -0.0047808954    -0.0013115967
22 N    -0.0048485889     0.0015864733    -0.0120233291
23 N     0.0026124254     0.0044590399    -0.0072870683
24 N     0.0112795705    -0.0066741979    -0.0027531484
25 N     0.0016186489     0.0005260247     0.0114038856
26 N    -0.0431266167    -0.0260243229     0.0024751259
27 N     0.0105343958     0.0798824531     0.0253225226
28 N     0.0131430384    -0.0083850357     0.0033332115
29 N     0.0155031674    -0.0048790859     0.0021760964
30 N    -0.0001788217     0.0040925065    -0.0151370875
31 N    -0.0123534089    -0.0163772405    -0.0004461098
32 N    -0.0043948768     0.1012392753     0.0213893743
33 N    -0.0535443723    -0.0274148056    -0.0045803793
34 N     0.0087145726     0.0205629224    -0.0025738297
35 N    -0.0081633418     0.0058790094    -0.0123635399
36 H    -0.0136042831     0.0059542759     0.0062161869
37 H    -0.0154444177     0.0074805505     0.0072274467
38 H    -0.0021624416     0.0053908107     0.0059213220
39 H     0.0197880206     0.0131221446    -0.0007603309
40 H     0.0090707043     0.0013647716     0.0009249757
41 H     0.0010425001    -0.0750378908    -0.0152784787
42 H    -0.0089305411    -0.0872229345    -0.0158379889
43 H    -0.0005175278    -0.1067764325    -0.0170997745
44 H     0.0175380228    -0.0086086029    -0.0081336160
45 H    -0.0061188877     0.0046386969    -0.0063174061
46 H     0.0620187128     0.0389738429     0.0006093757
47 H     0.0517320016     0.0317048000    -0.0014658573
48 H     0.0589871146     0.0160875764    -0.0044549048
49 H    -0.0060299530     0.0050392390     0.0077580926
50 H    -0.0096859322    -0.0028080670     0.0061655676
----------------------------------------------
4 Energy: -236.576546362
4 Hessian update information:
4 * Change: RMS: 0.000522, max: 0.0119
4 Trust update: Fletcher's parameter: 0.875
4 Linear interpolation:
4 * Energies: -236.57655, -236.41678
4 * Derivatives: 0.13, 0.215
4 * No fit succeeded, staying in new point
4 Pure RFO step was performed:
4 * Trust radius: 1.2
4 * Number of negative eigenvalues: 0
4 * Lowest eigenvalue: 0.00458
4 * lambda: -0.151
4 Quadratic step: RMS: 0.0377, max: 0.331
4 * Predicted energy change: -0.111
4 Total step: RMS: 0.0377, max: 0.331
4 Perfect transformation to cartesians in 5 iterations
4 * RMS(dcart): 9.92e-07, RMS(dq): 1.09e-06
4 Convergence criteria:
4 * Gradient RMS: 0.023 > 0.0003 => no
4 * Gradient maximum: 0.107 > 0.00045 => no
4 * Step RMS: 0.0377 > 0.0012 => no
4 * Step maximum: 0.331 > 0.0018 => no
New geometry (unit Bohr)
   1 B     -9.380482857683  -5.099357101086  -0.160404152642
   2 B      1.933713219900   6.485817268664  -0.113367838054
   3 B    -11.968650529817  -1.188451811037   0.179890477943
   4 B     -0.250087923098   2.086106354412   0.004370065835
   5 B     -1.936848335085  -0.908665276806  -0.038510112458
   6 B     -4.967646009127  10.979322949085  -0.099706741156
   7 B     -4.630447421658  -4.998004974356  -0.250905400879
   8 B     -0.282188190162  10.685052110114  -0.271055565214
   9 B     -7.154368528484  -0.863629852437   0.011621400414
  10 B     -2.870195715410   6.637135879260  -0.068878027942
  11 B    -10.143701336075   3.120331757777   0.256873974028
  12 C     -5.565528514563   3.219941883110   0.060322850624
  13 B     -7.798344599323   7.240901870012   0.131191151084
  14 B      4.703724100209   2.680092814758   0.120219074304
  15 B      0.065556595667  -5.515566493374  -0.170307746731
  16 B      2.565928089337  -1.513252325333   0.071005352367
  17 B      4.849801186709  -5.642306526636   0.056904593518
  18 B      7.266070123716  -1.364796272901   0.267402172894
  19 N     -7.008606527811  -6.348051848777  -0.309710098531
  20 N      1.948819739934   9.226401393458  -0.251437927054
  21 N     -9.468254511405  -2.363882863681   0.010403256781
  22 N     -0.514385282629   4.997980262265  -0.067081594340
  23 N    -12.289869169128   1.502148085870   0.316160169198
  24 N     -7.471862389850   9.911662985527   0.049178118550
  25 N     -4.575548067192  -2.121300118505  -0.095660286880
  26 N     -2.712224653948   9.397108871680  -0.160162850253
  27 N      4.414589958085   5.359134269013  -0.003260921655
  28 N     -2.404544638523  -6.603042689671  -0.313392503923
  29 N     -7.682652000305   1.893234435726   0.125871210880
  30 N     -5.507489085714   5.720454797258   0.046044033874
  31 N    -10.149181831348   5.856313249646   0.279201290864
  32 N      2.407067384874   1.194455475271   0.078871884739
  33 N      2.439042550242  -6.954600450279  -0.115159370133
  34 N      7.125840304145   1.374110620934   0.256196865930
  35 N      0.169277749608  -2.765492727567  -0.053634147464
  36 N      4.936564995632  -2.867017871095   0.148591695056
  37 H     -8.932867958510  11.064817769761   0.308283895485
  38 H    -11.762970765797   6.773858555468   0.571512634064
  39 H    -14.004927266651   2.216981650638   0.634885171145
  40 H    -13.778744442570  -2.498986849375   0.205551738782
  41 H    -11.268081109936  -6.313437511681  -0.160101357816
  42 H     -6.979039736141  -8.183808168196  -0.615640666343
  43 H     -2.624729793676  -8.437799741331  -0.599584719959
  44 H      2.440672241087  -8.834079074298  -0.382748531527
  45 H      6.804786413686  -6.804136430785  -0.127983756779
  46 H      9.273683398130  -2.362419074285   0.103197085229
  47 H      8.715545687748   2.350497076948   0.292043512500
  48 H      5.926732687900   6.450820394660  -0.035177077557
  49 H      3.629432960476  10.023608059254  -0.357820525695
  50 H     -0.256122503332  12.938997921309  -0.110950949907
  51 H     -4.838753176024  13.219743709031   0.078281317981

WARN: Large deviations found between the input molecule and the molecule from chkfile
Initial guess density matrix may have large error.



******** <class 'pyscf.scf.hf.as_scanner.<locals>.SCF_Scanner'> flags ********
method = SCF_Scanner-RHF
initial guess = minao
damping factor = 0
level shift factor = 0
DIIS = <class 'pyscf.scf.diis.CDIIS'>
DIIS start cycle = 1
DIIS space = 8
SCF tol = 1e-09
SCF gradient tol = None
max. SCF cycles = 50
direct_scf = False
chkfile to save SCF result = /tmp/tmp24p1wxno
max_memory 24000 MB (current use 18377 MB)
Set gradient conv threshold to 3.16228e-05
init E= -237.204530201265
  HOMO = -0.223124472011157  LUMO = 0.170853602957703
cycle= 1 E= -236.648829670131  delta_E= 0.556  |g|= 0.157  |ddm|= 0.734
  HOMO = -0.28652195520151  LUMO = 0.08985303674522
cycle= 2 E= -236.656436164663  delta_E= -0.00761  |g|= 0.0759  |ddm|= 0.341
  HOMO = -0.282994432161831  LUMO = 0.0974392979054885
cycle= 3 E= -236.657767323283  delta_E= -0.00133  |g|= 0.014  |ddm|= 0.0749
  HOMO = -0.28136030908185  LUMO = 0.100922233608445
cycle= 4 E= -236.657863647042  delta_E= -9.63e-05  |g|= 0.00428  |ddm|= 0.0337
  HOMO = -0.281898273803017  LUMO = 0.100149219234921
cycle= 5 E= -236.657872093265  delta_E= -8.45e-06  |g|= 0.0013  |ddm|= 0.00982
  HOMO = -0.281750438627925  LUMO = 0.100175569685144
cycle= 6 E= -236.657873153806  delta_E= -1.06e-06  |g|= 0.000491  |ddm|= 0.0033
  HOMO = -0.281720541142848  LUMO = 0.100213649270203
cycle= 7 E= -236.657873368294  delta_E= -2.14e-07  |g|= 0.00022  |ddm|= 0.00141
  HOMO = -0.281743181685513  LUMO = 0.100190795815618
cycle= 8 E= -236.657873435936  delta_E= -6.76e-08  |g|= 0.000104  |ddm|= 0.000857
  HOMO = -0.281732271910192  LUMO = 0.100192407738209
cycle= 9 E= -236.657873454839  delta_E= -1.89e-08  |g|= 5.27e-05  |ddm|= 0.000482
  HOMO = -0.281732331536057  LUMO = 0.100194540623786
cycle= 10 E= -236.65787345988  delta_E= -5.04e-09  |g|= 1.64e-05  |ddm|= 0.000309
  HOMO = -0.2817357463365  LUMO = 0.100192791539822
cycle= 11 E= -236.657873460301  delta_E= -4.22e-10  |g|= 5.49e-06  |ddm|= 8.98e-05
  HOMO = -0.281734194576493  LUMO = 0.100193408993026
Extra cycle  E= -236.657873460324  delta_E= -2.25e-11  |g|= 2.9e-06  |ddm|= 1.36e-05
converged SCF energy = -236.657873460324


******** <class 'pyscf.grad.rhf.as_scanner.<locals>.SCF_GradScanner'> for <class 'pyscf.scf.hf.as_scanner.<locals>.SCF_Scanner'> ********
max_memory 24000 MB (current use 18377 MB)
--------------- SCF_Scanner gradients ---------------
         x                y                z
0 B    -0.0035960453     0.0031719459    -0.0005230238
1 B     0.0058363339     0.0038155719    -0.0000071818
2 B    -0.0064029110    -0.0008538527     0.0000474891
3 B    -0.0070521767    -0.0193253616     0.0013550693
4 B     0.0146527260     0.0160107145     0.0025855430
5 B     0.0068884392     0.0036521758    -0.0131425967
6 B    -0.0023329979    -0.0059675184    -0.0023439289
7 B     0.0045886920    -0.0035046200    -0.0136000697
8 B    -0.0100586513     0.0053015946    -0.0001734394
9 B    -0.0108394175     0.0057309819     0.0009634105
10 B     0.0024965605    -0.0042439737     0.0019043329
11 C    -0.0192981724     0.0117128399     0.0002501048
12 B     0.0047698952    -0.0013100766     0.0014703730
13 B     0.0003617862     0.0019553205    -0.0008803801
14 B    -0.0020178777    -0.0020352796    -0.0024060590
15 B     0.0003097177     0.0001413611    -0.0004999797
16 B     0.0007104324    -0.0008463914     0.0135322537
17 B     0.0077747042    -0.0054211172     0.0139805091
18 N     0.0004835578    -0.0354388715     0.0061163359
19 N     0.0203144096     0.0221263589     0.0063011026
20 N     0.0060615252     0.0001196699    -0.0001123485
21 N     0.0015838146    -0.0106231539    -0.0014533059
22 N    -0.0043183629    -0.0001317356    -0.0095737205
23 N    -0.0074875766     0.0089612230    -0.0045729202
24 N     0.0103524874     0.0047841897    -0.0022849807
25 N    -0.0004023029    -0.0027070519     0.0091202753
26 N     0.0189847972     0.0182995118     0.0004880003
27 N    -0.0021227076    -0.0301198381     0.0070696898
28 N     0.0159968617     0.0096698575     0.0029828526
29 N     0.0010740147    -0.0166327771     0.0016109609
30 N    -0.0134836866     0.0098655964    -0.0091675372
31 N    -0.0033482474    -0.0108489687    -0.0013687502
32 N     0.0018544338    -0.0250931994     0.0036905457
33 N     0.0309170931     0.0195278675    -0.0024883837
34 N     0.0080123431     0.0121391486    -0.0029285273
35 N    -0.0040557916     0.0039372195    -0.0099851572
36 H     0.0032949963    -0.0049164546     0.0031969281
37 H     0.0057486899    -0.0036147619     0.0034155749
38 H     0.0038111623     0.0017361595     0.0043353320
39 H     0.0033815039     0.0019798287    -0.0006801958
40 H     0.0026045756    -0.0000278360     0.0010406981
41 H     0.0003074163     0.0151116100    -0.0020208272
42 H     0.0025405045     0.0101168671    -0.0024217440
43 H     0.0000857186    -0.0049151015    -0.0037072302
44 H     0.0064836457    -0.0019047127    -0.0055970899
45 H    -0.0016300256     0.0018366466    -0.0060346651
46 H    -0.0111607857    -0.0058478084     0.0001858066
47 H    -0.0086354445    -0.0094316095    -0.0003213579
48 H    -0.0098718295    -0.0107181469    -0.0010338059
49 H    -0.0031840760     0.0018383851     0.0066038793
50 H    -0.0046447527     0.0000643681     0.0054658206
----------------------------------------------
5 Energy: -236.65787346
5 Hessian update information:
5 * Change: RMS: 0.000851, max: 0.0312
5 Trust update: Fletcher's parameter: 0.732
5 Linear interpolation:
5 * Energies: -236.65787, -236.57655
5 * Derivatives: -0.00821, 0.151
5 * Quartic interpolation was performed: t = 0.0374
5 * Interpolated energy: -236.65803
5 Pure RFO step was performed:
5 * Trust radius: 1.2
5 * Number of negative eigenvalues: 0
5 * Lowest eigenvalue: 0.00454
5 * lambda: -0.0313
5 Quadratic step: RMS: 0.0387, max: 0.13
5 * Predicted energy change: -0.0233
5 Total step: RMS: 0.0383, max: 0.129
5 Perfect transformation to cartesians in 7 iterations
5 * RMS(dcart): 1.82e-07, RMS(dq): 1.94e-07
5 Convergence criteria:
5 * Gradient RMS: 0.00892 > 0.0003 => no
5 * Gradient maximum: 0.0354 > 0.00045 => no
5 * Step RMS: 0.0383 > 0.0012 => no
5 * Step maximum: 0.128 > 0.0018 => no
New geometry (unit Bohr)
   1 B     -9.377898630533  -5.067867192353  -0.491102694996
   2 B      1.928471226349   6.430156322022  -0.323862645893
   3 B    -11.948387157609  -1.238418471772   0.414788225176
   4 B     -0.220874885954   2.128441838458   0.027706454185
   5 B     -1.990818854273  -0.893547002585  -0.087304731771
   6 B     -4.954486880085  10.914890306142  -0.200859311612
   7 B     -4.626805252445  -4.886730792289  -0.639373311142
   8 B     -0.295217556532  10.607844121821  -0.720470990845
   9 B     -7.169917935497  -0.869422475493   0.017251595040
  10 B     -2.861266825203   6.598121527794  -0.153178442955
  11 B    -10.131133133875   3.075996629456   0.687270824595
  12 C     -5.552448284364   3.176480281169   0.180161974767
  13 B     -7.771804043451   7.202914369540   0.410027441621
  14 B      4.701774949087   2.676759934864   0.291609550083
  15 B      0.055399751058  -5.412206660616  -0.370374092896
  16 B      2.530019419451  -1.474324148384   0.216429018186
  17 B      4.810508309947  -5.582235036767   0.215972588737
  18 B      7.207496605394  -1.379028267097   0.691614829612
  19 N     -6.990399862715  -6.218864300237  -0.836402270303
  20 N      1.918594970090   9.130401811069  -0.706348940511
  21 N     -9.474937826449  -2.373737810079  -0.020151961918
  22 N     -0.515044011462   4.998319930776  -0.168209007925
  23 N    -12.256207121924   1.428281249884   0.810564975552
  24 N     -7.433388434984   9.863383291434   0.207525615824
  25 N     -4.613401980324  -2.072113747896  -0.242826319027
  26 N     -2.713716623567   9.340500084999  -0.397820388085
  27 N      4.401225084367   5.323029130012  -0.054929839456
  28 N     -2.392564096442  -6.448214267839  -0.761794761116
  29 N     -7.695445759296   1.859232037735   0.335158619890
  30 N     -5.488483053963   5.695734513249   0.166117512919
  31 N    -10.086717183338   5.803241552671   0.781043635887
  32 N      2.411025834360   1.233468475802   0.214070645866
  33 N      2.416583066436  -6.811981237308  -0.198147375534
  34 N      7.065660979863   1.337273035197   0.638932818019
  35 N      0.133784578634  -2.711049082156  -0.092032397870
  36 N      4.888823082042  -2.839137688948   0.423641256403
  37 H     -8.873993823442  11.052434517539   0.437521191402
  38 H    -11.689686661471   6.737340215447   1.106304337673
  39 H    -13.978016193904   2.095224350441   1.189218648382
  40 H    -13.761718551069  -2.562690382191   0.412805704922
  41 H    -11.252644052404  -6.307397256962  -0.549362437333
  42 H     -6.932034796326  -8.067577870138  -1.229056891880
  43 H     -2.601608466421  -8.295582124424  -1.105919769398
  44 H      2.433960287490  -8.680738632654  -0.455338252800
  45 H      6.730863057286  -6.787296903399   0.287990016061
  46 H      9.212234656222  -2.401962713788   0.810654673266
  47 H      8.689059733420   2.300099732581   0.757692143972
  48 H      5.918689041347   6.444869072623  -0.119041502394
  49 H      3.596028389213   9.972495565400  -0.911831143120
  50 H     -0.201646733187  12.855727880506  -0.859411281855
  51 H     -4.759983833440  13.154408704164  -0.305491412226

WARN: Large deviations found between the input molecule and the molecule from chkfile
Initial guess density matrix may have large error.



******** <class 'pyscf.scf.hf.as_scanner.<locals>.SCF_Scanner'> flags ********
method = SCF_Scanner-RHF
initial guess = minao
damping factor = 0
level shift factor = 0
DIIS = <class 'pyscf.scf.diis.CDIIS'>
DIIS start cycle = 1
DIIS space = 8
SCF tol = 1e-09
SCF gradient tol = None
max. SCF cycles = 50
direct_scf = False
chkfile to save SCF result = /tmp/tmp24p1wxno
max_memory 24000 MB (current use 18390 MB)
Set gradient conv threshold to 3.16228e-05
init E= -236.701720946503
  HOMO = -0.281595321436281  LUMO = 0.104897706533756
cycle= 1 E= -236.667398157993  delta_E= 0.0343  |g|= 0.096  |ddm|= 0.561
  HOMO = -0.279342123098187  LUMO = 0.103092305091432
cycle= 2 E= -236.672377756751  delta_E= -0.00498  |g|= 0.0371  |ddm|= 0.157
  HOMO = -0.280513493583498  LUMO = 0.104677638969123
cycle= 3 E= -236.673079023842  delta_E= -0.000701  |g|= 0.0192  |ddm|= 0.0629
  HOMO = -0.280715991118539  LUMO = 0.104095279136269
cycle= 4 E= -236.673231993813  delta_E= -0.000153  |g|= 0.00352  |ddm|= 0.0292
  HOMO = -0.280334233231442  LUMO = 0.104049647297487
cycle= 5 E= -236.673243594556  delta_E= -1.16e-05  |g|= 0.00173  |ddm|= 0.00901
  HOMO = -0.280508931029049  LUMO = 0.103990221517757
cycle= 6 E= -236.673247303165  delta_E= -3.71e-06  |g|= 0.00078  |ddm|= 0.00601
  HOMO = -0.280475754157106  LUMO = 0.104017423694019
cycle= 7 E= -236.673248229567  delta_E= -9.26e-07  |g|= 0.000401  |ddm|= 0.00309
  HOMO = -0.280453726820488  LUMO = 0.104022430335577
cycle= 8 E= -236.673248568949  delta_E= -3.39e-07  |g|= 0.000136  |ddm|= 0.00248
  HOMO = -0.280476609462948  LUMO = 0.104004871117384
cycle= 9 E= -236.673248601849  delta_E= -3.29e-08  |g|= 4.2e-05  |ddm|= 0.000839
  HOMO = -0.280468105327994  LUMO = 0.104011037705056
cycle= 10 E= -236.673248603368  delta_E= -1.52e-09  |g|= 1.32e-05  |ddm|= 0.000168
  HOMO = -0.280467977280428  LUMO = 0.104010603339169
cycle= 11 E= -236.673248603478  delta_E= -1.1e-10  |g|= 3.09e-06  |ddm|= 4.75e-05
  HOMO = -0.280468959862931  LUMO = 0.104010118293961
Extra cycle  E= -236.67324860348  delta_E= -2.96e-12  |g|= 1.45e-06  |ddm|= 7.15e-06
converged SCF energy = -236.67324860348


******** <class 'pyscf.grad.rhf.as_scanner.<locals>.SCF_GradScanner'> for <class 'pyscf.scf.hf.as_scanner.<locals>.SCF_Scanner'> ********
max_memory 24000 MB (current use 18390 MB)
--------------- SCF_Scanner gradients ---------------
         x                y                z
0 B    -0.0019443865     0.0007634303    -0.0013543307
1 B     0.0053337486    -0.0008551471    -0.0012641570
2 B    -0.0034145094    -0.0003662679     0.0012930875
3 B     0.0059561684    -0.0082103810     0.0048028593
4 B     0.0014907601    -0.0018365808     0.0037772915
5 B     0.0036059528     0.0013079823    -0.0028278469
6 B     0.0002401195    -0.0050491101    -0.0038613344
7 B     0.0045023520    -0.0009399156    -0.0047453357
8 B    -0.0055669988     0.0018407869    -0.0012428989
9 B    -0.0069425562     0.0026111694    -0.0004553215
10 B    -0.0011582127    -0.0016323981     0.0032878098
11 C    -0.0043744983     0.0014607983     0.0005189395
12 B     0.0005013299     0.0007255597     0.0014840276
13 B     0.0013515656     0.0016164636    -0.0002195501
14 B    -0.0020298733    -0.0023796004    -0.0032522398
15 B     0.0010674036    -0.0004548431     0.0015504660
16 B     0.0020510644    -0.0023303235     0.0039595311
17 B     0.0056997381    -0.0030690923     0.0062423848
18 N     0.0010582983     0.0003242852     0.0054826043
19 N    -0.0021068958     0.0043345070     0.0021125135
20 N     0.0060392445     0.0004268048    -0.0007190712
21 N    -0.0005576397    -0.0013998608    -0.0034481665
22 N    -0.0012004713    -0.0033577210    -0.0044116382
23 N    -0.0022280000     0.0018517726    -0.0052068412
24 N     0.0011647365     0.0042296893    -0.0018703293
25 N    -0.0009599333    -0.0043590112    -0.0000569739
26 N    -0.0003888641     0.0011901357    -0.0008783978
27 N     0.0018375438     0.0002884995     0.0039571574
28 N    -0.0008819870     0.0011573876     0.0021174013
29 N    -0.0004263551     0.0006941806    -0.0013039417
30 N    -0.0025235746     0.0016743361    -0.0025965684
31 N     0.0080148471     0.0024634173    -0.0034947393
32 N     0.0039393235    -0.0085339813     0.0037471796
33 N     0.0022752838    -0.0016518957     0.0017841506
34 N     0.0018759341    -0.0008828154    -0.0050978300
35 N    -0.0010890477     0.0016133625    -0.0014024044
36 H     0.0027598791    -0.0030846441     0.0016397788
37 H     0.0039005991    -0.0025065498     0.0015866520
38 H     0.0031755730     0.0004128296     0.0020260713
39 H     0.0014686507    -0.0000862580    -0.0010542018
40 H     0.0012849360    -0.0003787251     0.0010219597
41 H     0.0008655160    -0.0008547782    -0.0023409008
42 H     0.0017147902    -0.0008842253    -0.0022442360
43 H     0.0011607631     0.0019851125    -0.0013918052
44 H     0.0039168980    -0.0010684050    -0.0013690657
45 H     0.0003954194     0.0003016160    -0.0026585668
46 H     0.0008372658     0.0000462997     0.0001515553
47 H     0.0013634010    -0.0020398048    -0.0002818567
48 H     0.0011352716    -0.0023713347    -0.0006664007
49 H    -0.0003129058     0.0010321541     0.0027623272
50 H    -0.0003602783     0.0001430677     0.0013941861
----------------------------------------------
6 Energy: -236.673248603
6 Hessian update information:
6 * Change: RMS: 0.00113, max: 0.0295
6 Trust update: Fletcher's parameter: 0.659
6 Linear interpolation:
6 * Energies: -236.67325, -236.65787
6 * Derivatives: 0.00218, 0.0318
6 * Quartic interpolation was performed: t = -0.112
6 * Interpolated energy: -236.67337
6 Pure RFO step was performed:
6 * Trust radius: 1.2
6 * Number of negative eigenvalues: 0
6 * Lowest eigenvalue: 0.00445
6 * lambda: -0.0106
6 Quadratic step: RMS: 0.0365, max: 0.122
6 * Predicted energy change: -0.00762
6 Total step: RMS: 0.0377, max: 0.132
6 Perfect transformation to cartesians in 6 iterations
6 * RMS(dcart): 2.82e-07, RMS(dq): 3.79e-07
6 Convergence criteria:
6 * Gradient RMS: 0.00281 > 0.0003 => no
6 * Gradient maximum: 0.00853 > 0.00045 => no
6 * Step RMS: 0.0377 > 0.0012 => no
6 * Step maximum: 0.133 > 0.0018 => no
New geometry (unit Bohr)
   1 B     -9.351774411180  -5.097668098572  -0.475078950732
   2 B      1.927289922488   6.446140060609  -0.171064936228
   3 B    -11.922464855483  -1.243547549067   0.255264423789
   4 B     -0.251620345481   2.171557919032   0.098688580150
   5 B     -1.994955722084  -0.899854857822  -0.048530754986
   6 B     -4.934772424593  10.920310863898   0.010846956026
   7 B     -4.621076127521  -4.903456579604  -0.452555850931
   8 B     -0.279289782757  10.616485134015  -0.568378051658
   9 B     -7.138612207159  -0.888766481628   0.063709640243
  10 B     -2.827018606281   6.620619404164   0.122832665630
  11 B    -10.119604228836   3.076163204771   0.517934898916
  12 C     -5.525618398431   3.181324798234   0.280362020483
  13 B     -7.759264715801   7.204118169781   0.489369266850
  14 B      4.673264271905   2.673577283582   0.218061608920
  15 B      0.029253418108  -5.407992113757  -0.227272925413
  16 B      2.501762158420  -1.459323439125   0.169421311347
  17 B      4.785333731350  -5.550584266288   0.078614846397
  18 B      7.191223389028  -1.366022375835   0.364433466172
  19 N     -6.962655108222  -6.243898126273  -0.744198969325
  20 N      1.923736133429   9.124789990526  -0.628288902348
  21 N     -9.447002736463  -2.395795465655  -0.037334537478
  22 N     -0.502931917302   5.031837109001   0.067716561605
  23 N    -12.248100089199   1.430891823493   0.573113478530
  24 N     -7.416542396009   9.867046511767   0.362923022244
  25 N     -4.599094947479  -2.097233370198  -0.112877671536
  26 N     -2.685281404655   9.361179274493  -0.145820848431
  27 N      4.396122727584   5.325894224523  -0.035942737149
  28 N     -2.407060558103  -6.468365615395  -0.563296575621
  29 N     -7.671168723167   1.851847733101   0.294112290292
  30 N     -5.462873645877   5.702727427747   0.350256051514
  31 N    -10.087121466260   5.796536839521   0.649420123188
  32 N      2.369374335388   1.248301981758   0.220927674173
  33 N      2.385831157128  -6.776217525919  -0.167181724671
  34 N      7.045342739526   1.337394914740   0.375942262087
  35 N      0.108025612331  -2.717957421537   0.014388043334
  36 N      4.869663833800  -2.818651363064   0.253738000631
  37 H     -8.874949826635  11.060079729660   0.390934788766
  38 H    -11.719698728380   6.733489115325   0.783023204957
  39 H    -14.004784257584   2.089007325954   0.762791886036
  40 H    -13.746210875484  -2.573037537593   0.218246711720
  41 H    -11.234698733693  -6.323130137625  -0.631071164813
  42 H     -6.885122624233  -8.116576513443  -1.025182445016
  43 H     -2.628177103653  -8.334114403322  -0.798321863127
  44 H      2.391223627829  -8.660867079897  -0.284557307707
  45 H      6.674059908238  -6.774686316010   0.219995322036
  46 H      9.190567145114  -2.398152343721   0.559166384717
  47 H      8.678902584706   2.295334427792   0.454020243417
  48 H      5.909620326676   6.455737212528  -0.155320331682
  49 H      3.580229985239   9.986127613075  -0.941365291371
  50 H     -0.165932389749  12.823266172996  -0.984970549950
  51 H     -4.717843134420  13.139059132688  -0.290211220820


******** <class 'pyscf.scf.hf.as_scanner.<locals>.SCF_Scanner'> flags ********
method = SCF_Scanner-RHF
initial guess = minao
damping factor = 0
level shift factor = 0
DIIS = <class 'pyscf.scf.diis.CDIIS'>
DIIS start cycle = 1
DIIS space = 8
SCF tol = 1e-09
SCF gradient tol = None
max. SCF cycles = 50
direct_scf = False
chkfile to save SCF result = /tmp/tmp24p1wxno
max_memory 24000 MB (current use 18390 MB)
Set gradient conv threshold to 3.16228e-05
init E= -236.722674322868
  HOMO = -0.277100062601683  LUMO = 0.105940396812728
cycle= 1 E= -236.674862896642  delta_E= 0.0478  |g|= 0.0628  |ddm|= 0.422
  HOMO = -0.278688185128891  LUMO = 0.103330499148702
cycle= 2 E= -236.677008953088  delta_E= -0.00215  |g|= 0.024  |ddm|= 0.112
  HOMO = -0.278446691312957  LUMO = 0.104602268692755
cycle= 3 E= -236.677320994407  delta_E= -0.000312  |g|= 0.0127  |ddm|= 0.0478
  HOMO = -0.278672666496262  LUMO = 0.104216751167645
cycle= 4 E= -236.677385108583  delta_E= -6.41e-05  |g|= 0.00225  |ddm|= 0.0201
  HOMO = -0.278574342715809  LUMO = 0.104145990724488
cycle= 5 E= -236.677390811545  delta_E= -5.7e-06  |g|= 0.00103  |ddm|= 0.00722
  HOMO = -0.278649785148694  LUMO = 0.10415500287533
cycle= 6 E= -236.677392255976  delta_E= -1.44e-06  |g|= 0.000506  |ddm|= 0.00378
  HOMO = -0.278629346662476  LUMO = 0.104171860176048
cycle= 7 E= -236.677392684021  delta_E= -4.28e-07  |g|= 0.000258  |ddm|= 0.00216
  HOMO = -0.278625984196554  LUMO = 0.104173065002438
cycle= 8 E= -236.677392819935  delta_E= -1.36e-07  |g|= 9.26e-05  |ddm|= 0.00152
  HOMO = -0.278635141946711  LUMO = 0.104167857899223
cycle= 9 E= -236.677392836266  delta_E= -1.63e-08  |g|= 2.61e-05  |ddm|= 0.000614
  HOMO = -0.278630340050353  LUMO = 0.10417157695578
cycle= 10 E= -236.677392836875  delta_E= -6.09e-10  |g|= 1.05e-05  |ddm|= 9.75e-05
  HOMO = -0.278631499622472  LUMO = 0.104170647626749
Extra cycle  E= -236.677392836934  delta_E= -5.98e-11  |g|= 5.85e-06  |ddm|= 2.19e-05
converged SCF energy = -236.677392836934


******** <class 'pyscf.grad.rhf.as_scanner.<locals>.SCF_GradScanner'> for <class 'pyscf.scf.hf.as_scanner.<locals>.SCF_Scanner'> ********
max_memory 24000 MB (current use 18390 MB)
--------------- SCF_Scanner gradients ---------------
         x                y                z
0 B     0.0011215045    -0.0012100295     0.0015334777
1 B     0.0006226415    -0.0009371638     0.0021675630
2 B     0.0013232467     0.0014251035    -0.0001141770
3 B     0.0032072557     0.0024612769     0.0004873138
4 B     0.0030351372    -0.0048224706    -0.0069033324
5 B     0.0014736826     0.0002139345     0.0066473856
6 B     0.0008618429    -0.0021468701     0.0030038689
7 B     0.0044713054     0.0020429187     0.0073575173
8 B    -0.0004667990     0.0003166368     0.0029555067
9 B    -0.0014717916     0.0005733767     0.0042925412
10 B     0.0004841880     0.0005111782    -0.0006920307
11 C    -0.0026580796     0.0018778609    -0.0016995706
12 B    -0.0003640640     0.0011122887     0.0015279222
13 B     0.0001647458    -0.0006448997     0.0004884609
14 B    -0.0007191865    -0.0005666606     0.0011198382
15 B     0.0004073027    -0.0003487600    -0.0031383719
16 B     0.0017655707    -0.0014411855    -0.0063048384
17 B     0.0021611502    -0.0002297339    -0.0085984131
18 N     0.0029589564     0.0067877093    -0.0045149256
19 N    -0.0031515645    -0.0045421070    -0.0058412587
20 N     0.0033132712    -0.0009351827    -0.0015753925
21 N     0.0027796319     0.0006712547     0.0032872841
22 N     0.0008515996    -0.0022749319     0.0020432070
23 N    -0.0004075994    -0.0016282476    -0.0008133628
24 N     0.0035420569     0.0000967479     0.0040504675
25 N    -0.0011943679    -0.0029383211    -0.0094120278
26 N    -0.0012451882    -0.0024789593    -0.0024158640
27 N    -0.0001197187     0.0052014548    -0.0045217416
28 N    -0.0018616368    -0.0009328694    -0.0019479690
29 N    -0.0002290541     0.0013428655    -0.0007423573
30 N     0.0008244682    -0.0015378154     0.0013880073
31 N     0.0006558775     0.0036556652     0.0022074233
32 N     0.0017741008     0.0042514472     0.0015262138
33 N    -0.0047792084    -0.0031471527     0.0039761515
34 N    -0.0009731026    -0.0099343400     0.0050810729
35 N     0.0001548073    -0.0015738583     0.0098238818
36 H     0.0021421821    -0.0014032034    -0.0007611433
37 H     0.0021576705    -0.0009630989    -0.0001029547
38 H     0.0017993647    -0.0007152594    -0.0000386507
39 H    -0.0006800720    -0.0022082499    -0.0003189000
40 H     0.0002765909    -0.0008145795    -0.0005674639
41 H     0.0007706396    -0.0039431538    -0.0002123902
42 H     0.0005908510    -0.0031319653    -0.0003664639
43 H     0.0012128135     0.0007755724     0.0002287794
44 H    -0.0000751057    -0.0002745639     0.0023856356
45 H     0.0007568685    -0.0004170041     0.0030825063
46 H     0.0033707489     0.0003690666     0.0003170626
47 H     0.0025517571     0.0009360928    -0.0004516290
48 H     0.0023316039     0.0014101878    -0.0008627761
49 H     0.0012240171    -0.0014207841    -0.0029529260
50 H     0.0016806761    -0.0009219777    -0.0029984550
----------------------------------------------
7 Energy: -236.677392837
7 Hessian update information:
7 * Change: RMS: 0.000667, max: 0.0199
7 Trust update: Fletcher's parameter: 0.544
7 Linear interpolation:
7 * Energies: -236.67739, -236.67325
7 * Derivatives: -0.00271, 0.0106
7 * Quartic interpolation was performed: t = 0.189
7 * Interpolated energy: -236.67765
7 Pure RFO step was performed:
7 * Trust radius: 1.2
7 * Number of negative eigenvalues: 0
7 * Lowest eigenvalue: 0.0039
7 * lambda: -0.00922
7 Quadratic step: RMS: 0.0368, max: 0.127
7 * Predicted energy change: -0.00667
7 Total step: RMS: 0.0341, max: 0.124
7 Perfect transformation to cartesians in 7 iterations
7 * RMS(dcart): 1.9e-07, RMS(dq): 1.55e-07
7 Convergence criteria:
7 * Gradient RMS: 0.00287 > 0.0003 => no
7 * Gradient maximum: 0.00993 > 0.00045 => no
7 * Step RMS: 0.0341 > 0.0012 => no
7 * Step maximum: 0.125 > 0.0018 => no
New geometry (unit Bohr)
   1 B     -9.350922071472  -5.166856258067  -0.136414880215
   2 B      1.939907121296   6.463283223420  -0.049670579593
   3 B    -11.913651221580  -1.255414838251   0.161094187586
   4 B     -0.253831451300   2.206687839336  -0.265696628862
   5 B     -2.029484908157  -0.893346100724  -0.190519794979
   6 B     -4.917443151527  10.911713398636   0.188380700562
   7 B     -4.632114055741  -4.931244793808  -0.210135384077
   8 B     -0.243933112482  10.654885902798  -0.119244087393
   9 B     -7.135342112721  -0.916411262712  -0.048925586157
  10 B     -2.800368985831   6.614163394350   0.033354778962
  11 B    -10.112063174138   3.071194731425   0.169119156685
  12 C     -5.509637884730   3.162231863542   0.053452902921
  13 B     -7.748221118011   7.185206722713   0.255381924925
  14 B      4.665346374490   2.677934722645   0.029342431149
  15 B      0.007344301827  -5.380529295912  -0.196786907037
  16 B      2.478461057229  -1.432671874642  -0.144718714844
  17 B      4.748625928951  -5.518626127364  -0.138437885044
  18 B      7.163552645290  -1.352936889631   0.007183768613
  19 N     -6.961295521571  -6.318259713804  -0.270527558983
  20 N      1.963931268441   9.169910100080  -0.169772598521
  21 N     -9.447071735692  -2.431116828732   0.004288095618
  22 N     -0.489433127418   5.046161460635  -0.083542840361
  23 N    -12.245891085506   1.435833265738   0.241629813568
  24 N     -7.409525223812   9.849042514874   0.312152946892
  25 N     -4.612419243440  -2.119683131847  -0.158591694396
  26 N     -2.658037130362   9.369795980530   0.062000316718
  27 N      4.400960349514   5.337046868905   0.065360521903
  28 N     -2.423463675819  -6.487171013575  -0.229968469500
  29 N     -7.659997598731   1.836200788476   0.038920979750
  30 N     -5.446474761694   5.684191560137   0.143055089775
  31 N    -10.080275434737   5.786605498474   0.265694321123
  32 N      2.354619532639   1.270948406731  -0.095529063320
  33 N      2.348580848158  -6.734518791195  -0.189886780066
  34 N      7.028672192802   1.339174287956   0.090495693509
  35 N      0.081559308326  -2.688518685580  -0.161493275353
  36 N      4.845125202834  -2.792916618846  -0.097418237855
  37 H     -8.861205745640  11.053612538832   0.294136751671
  38 H    -11.715795020412   6.732753074604   0.296013264510
  39 H    -14.017386948952   2.081379420187   0.293604438131
  40 H    -13.750081067929  -2.586856022210   0.230388326217
  41 H    -11.236051030746  -6.405642672570  -0.132854953180
  42 H     -6.866643824710  -8.211141341929  -0.272438803077
  43 H     -2.642065515639  -8.366183934465  -0.193096660796
  44 H      2.347170972126  -8.619600993975  -0.090557084758
  45 H      6.612396809555  -6.748917320411   0.060602632761
  46 H      9.155372302073  -2.403595759359   0.234532322288
  47 H      8.665189051407   2.283710924401   0.242354379298
  48 H      5.903466085715   6.485979448041   0.138048645293
  49 H      3.619865210370  10.084689317843  -0.266352991606
  50 H     -0.078571551379  12.882316426765  -0.328541064146
  51 H     -4.643943555055  13.140453004955   0.061966256871

WARN: Large deviations found between the input molecule and the molecule from chkfile
Initial guess density matrix may have large error.



******** <class 'pyscf.scf.hf.as_scanner.<locals>.SCF_Scanner'> flags ********
method = SCF_Scanner-RHF
initial guess = minao
damping factor = 0
level shift factor = 0
DIIS = <class 'pyscf.scf.diis.CDIIS'>
DIIS start cycle = 1
DIIS space = 8
SCF tol = 1e-09
SCF gradient tol = None
max. SCF cycles = 50
direct_scf = False
chkfile to save SCF result = /tmp/tmp24p1wxno
max_memory 24000 MB (current use 18390 MB)
Set gradient conv threshold to 3.16228e-05
init E= -236.662601855813
  HOMO = -0.28481221406833  LUMO = 0.0945320150533485
cycle= 1 E= -236.671165670608  delta_E= -0.00856  |g|= 0.0986  |ddm|= 0.599
  HOMO = -0.276037275475427  LUMO = 0.104804653882471
cycle= 2 E= -236.676522051671  delta_E= -0.00536  |g|= 0.0368  |ddm|= 0.157
  HOMO = -0.275943742837024  LUMO = 0.10452696568398
cycle= 3 E= -236.67727551325  delta_E= -0.000753  |g|= 0.0178  |ddm|= 0.0699
  HOMO = -0.276650952934536  LUMO = 0.104157454103612
cycle= 4 E= -236.67739993869  delta_E= -0.000124  |g|= 0.0028  |ddm|= 0.0276
  HOMO = -0.276285488485131  LUMO = 0.104470957013803
cycle= 5 E= -236.677406438918  delta_E= -6.5e-06  |g|= 0.00119  |ddm|= 0.00784
  HOMO = -0.276391010490653  LUMO = 0.104383076044298
cycle= 6 E= -236.677407410082  delta_E= -9.71e-07  |g|= 0.00043  |ddm|= 0.00286
  HOMO = -0.276417026342919  LUMO = 0.104364491306651
cycle= 7 E= -236.677407626259  delta_E= -2.16e-07  |g|= 0.000202  |ddm|= 0.0014
  HOMO = -0.276397076191858  LUMO = 0.104381488111647
cycle= 8 E= -236.677407701006  delta_E= -7.47e-08  |g|= 0.000101  |ddm|= 0.000926
  HOMO = -0.276404425145386  LUMO = 0.104377521282359
cycle= 9 E= -236.677407723515  delta_E= -2.25e-08  |g|= 3.84e-05  |ddm|= 0.000636
  HOMO = -0.276403762398385  LUMO = 0.104377301771384
cycle= 10 E= -236.677407725876  delta_E= -2.36e-09  |g|= 1.3e-05  |ddm|= 0.000217
  HOMO = -0.276402545200101  LUMO = 0.104378399036326
cycle= 11 E= -236.67740772607  delta_E= -1.94e-10  |g|= 4.19e-06  |ddm|= 6.05e-05
  HOMO = -0.276403127842889  LUMO = 0.104378098511252
Extra cycle  E= -236.677407726086  delta_E= -1.64e-11  |g|= 2.35e-06  |ddm|= 1.08e-05
converged SCF energy = -236.677407726086


[...]
  HOMO = -0.278675035425757  LUMO = 0.102863162254138
Extra cycle  E= -236.681813372722  delta_E= -1.82e-12  |g|= 4.97e-07  |ddm|= 1.15e-06
converged SCF energy = -236.681813372722


******** <class 'pyscf.grad.rhf.as_scanner.<locals>.SCF_GradScanner'> for <class 'pyscf.scf.hf.as_scanner.<locals>.SCF_Scanner'> ********
max_memory 24000 MB (current use 18606 MB)
--------------- SCF_Scanner gradients ---------------
         x                y                z
0 B     0.0019900700    -0.0012355204     0.0003315361
1 B    -0.0007293007    -0.0007881918     0.0005072582
2 B     0.0035095857     0.0006361701    -0.0000554547
3 B     0.0000926468     0.0060405043     0.0011621082
4 B     0.0023959006    -0.0028725318    -0.0057555464
5 B    -0.0006179915    -0.0010385943     0.0013240740
6 B     0.0016617159     0.0005308145     0.0015312986
7 B    -0.0000456766     0.0006964268     0.0021799030
8 B     0.0034388939    -0.0014201974     0.0004722206
9 B     0.0042663563    -0.0017948689    -0.0003072891
10 B     0.0009916237     0.0003089951    -0.0007220341
11 C     0.0024526765    -0.0012482609    -0.0004424501
12 B     0.0002144773     0.0001337879     0.0000341402
13 B     0.0012768904    -0.0009978479    -0.0006026441
14 B     0.0025163650    -0.0007064659     0.0006489618
15 B     0.0008667965    -0.0007522259    -0.0008711872
16 B     0.0010156084    -0.0010013356    -0.0023104651
17 B    -0.0009778408     0.0008620506    -0.0028898922
18 N     0.0010999393     0.0012615496    -0.0025719056
19 N     0.0012249089    -0.0028329871    -0.0017891200
20 N    -0.0005132937    -0.0004087800     0.0005551352
21 N     0.0003298376     0.0015465894    -0.0000346457
22 N     0.0015913179     0.0003636916     0.0010077604
23 N     0.0012176422    -0.0019894513     0.0015800134
24 N     0.0004008053    -0.0005710510     0.0010140928
25 N     0.0008910075     0.0004725704    -0.0002737768
26 N     0.0010125753    -0.0021600511     0.0012552929
27 N     0.0001423326     0.0007316212    -0.0011636597
28 N     0.0005236901    -0.0011531240    -0.0010441070
29 N     0.0007445180    -0.0004361724     0.0014305874
30 N     0.0018642451    -0.0017847762     0.0005392855
31 N    -0.0019988931    -0.0010358129     0.0009762700
32 N     0.0001688977     0.0000066602    -0.0014436055
33 N    -0.0013504686    -0.0013623162    -0.0004168800
34 N     0.0002027746    -0.0040252787     0.0040788184
35 N     0.0016495398    -0.0016849962     0.0014316036
36 H     0.0009581967     0.0002836205    -0.0005542088
37 H     0.0005073508    -0.0000621220    -0.0003054481
38 H     0.0003402283    -0.0012611928    -0.0003072693
39 H    -0.0010182874    -0.0019140842     0.0001941447
40 H     0.0001300257    -0.0007543251    -0.0002190910
41 H     0.0008485452    -0.0004538979     0.0004709297
42 H     0.0009362650     0.0002062986     0.0003949987
43 H     0.0010479093     0.0018957980     0.0006393446
44 H    -0.0009880983     0.0001452538     0.0011574399
45 H     0.0013520958    -0.0010086684     0.0014143744
46 H     0.0007364830    -0.0008956691     0.0004918427
47 H     0.0003530755    -0.0000353844     0.0001508698
48 H     0.0003855546     0.0005395288    -0.0001979301
49 H     0.0014987496    -0.0013874570    -0.0012534334
50 H     0.0018255071    -0.0006352553    -0.0008399689
----------------------------------------------
43 Energy: -236.681813373
43 Hessian update information:
43 * Change: RMS: 0.000933, max: 0.039
43 Trust update: Fletcher's parameter: -0.292
43 Linear interpolation:
43 * Energies: -236.68181, -236.68181
43 * Derivatives: 9.94e-08, 9.95e-08
43 * Cubic interpolation was performed: t = 0.898
43 * Interpolated energy: -236.68181
43 Minimization on sphere was performed:
43 * Trust radius: 1.3e-06
43 * Number of negative eigenvalues: 0
43 * Lowest eigenvalue: 0.00444
43 * lambda: -1.42e+04
43 Quadratic step: RMS: 7.02e-08, max: 3.72e-07
43 * Predicted energy change: -2.32e-08
43 Total step: RMS: 2.01e-07, max: 1.06e-06
43 Perfect transformation to cartesians in 1 iterations
43 * RMS(dcart): 4.42e-07, RMS(dq): 2.01e-07
43 Convergence criteria:
43 * Gradient RMS: 0.0015 > 0.0003 => no
43 * Gradient maximum: 0.00604 > 0.00045 => no
43 * Minimization on sphere: Minimization on sphere => no
New geometry (unit Bohr)
   1 B     -9.355251598125  -5.143851525539  -0.086203459854
   2 B      1.933697830944   6.470152391542   0.007131838753
   3 B    -11.924600296186  -1.233611222984   0.087202443401
   4 B     -0.262898473287   2.186425929459  -0.042054817961
   5 B     -2.003538448743  -0.893994500822  -0.121931414700
   6 B     -4.942045920383  10.930550124408   0.142896019593
   7 B     -4.623491417867  -4.933280682283  -0.122744415153
   8 B     -0.265892735946  10.667559887626  -0.044197827363
   9 B     -7.132749971699  -0.905980143665  -0.015376813918
  10 B     -2.809014049698   6.626141596494   0.079513933150
  11 B    -10.111271208207   3.081327700590   0.112288744391
  12 C     -5.501691928915   3.165527379115   0.084502820722
  13 B     -7.753627859057   7.191000943511   0.179977276812
  14 B      4.669262945871   2.668821027206   0.001424021399
  15 B      0.030615384942  -5.413035841410  -0.132078203992
  16 B      2.498248900931  -1.455124819536  -0.100720016555
  17 B      4.777241049299  -5.554933083641  -0.142758125773
  18 B      7.182867502533  -1.367970011299  -0.067656617142
  19 N     -6.965669486035  -6.309783518396  -0.162319729253
  20 N      1.948289047657   9.184747767211  -0.080200733974
  21 N     -9.451683827373  -2.408251821934   0.002086825200
  22 N     -0.499034171707   5.044121076470   0.018272926253
  23 N    -12.253169871089   1.458216286210   0.134699005883
  24 N     -7.430603020495   9.858744046581   0.213926508335
  25 N     -4.603166165804  -2.113323156309  -0.089396180510
  26 N     -2.678755310752   9.383531112695   0.077318373994
  27 N      4.395399455431   5.330579647804   0.056313444946
  28 N     -2.412957410099  -6.501400349588  -0.139928904070
  29 N     -7.654202223222   1.845080372863   0.048846250748
  30 N     -5.448681124900   5.689886442192   0.133588964520
  31 N    -10.088791274494   5.798906039989   0.173858649201
  32 N      2.360436872576   1.247648098348  -0.044127203947
  33 N      2.374280276024  -6.794368442137  -0.157629329831
  34 N      7.043566610959   1.332413675561  -0.012157133958
  35 N      0.104048341950  -2.707462123371  -0.106185265063
  36 N      4.863835357884  -2.819013305345  -0.119753295753
  37 H     -8.897638455276  11.046713022864   0.221300909645
  38 H    -11.727334603741   6.740583051685   0.203260337753
  39 H    -14.019244271609   2.122242766309   0.176334788351
  40 H    -13.757263506592  -2.552214578783   0.119334899659
  41 H    -11.239429735630  -6.377385996733  -0.099169438096
  42 H     -6.877883288106  -8.195917285449  -0.194964522846
  43 H     -2.636013279436  -8.375041223065  -0.144303631585
  44 H      2.366233625313  -8.679796727288  -0.132824308172
  45 H      6.671479222702  -6.770142300134  -0.096043138221
  46 H      9.188879864643  -2.408994823784  -0.008569339281
  47 H      8.672374380850   2.287730553496   0.058440791317
  48 H      5.903987412657   6.465369974138   0.087890931728
  49 H      3.613561465036  10.071791065642  -0.166293183576
  50 H     -0.125932143784  12.907141712462  -0.159107130423
  51 H     -4.707273953837  13.166870208442   0.099715598397


******** <class 'pyscf.scf.hf.as_scanner.<locals>.SCF_Scanner'> flags ********
method = SCF_Scanner-RHF
initial guess = minao
damping factor = 0
level shift factor = 0
DIIS = <class 'pyscf.scf.diis.CDIIS'>
DIIS start cycle = 1
DIIS space = 8
SCF tol = 1e-09
SCF gradient tol = None
max. SCF cycles = 50
direct_scf = False
chkfile to save SCF result = /tmp/tmp24p1wxno
max_memory 24000 MB (current use 1146 MB)
Set gradient conv threshold to 3.16228e-05
init E= -236.681816097792
  HOMO = -0.278674645015317  LUMO = 0.102863491013575
cycle= 1 E= -236.681813427222  delta_E= 2.67e-06  |g|= 1.4e-06  |ddm|= 6.75e-06
  HOMO = -0.278674958680517  LUMO = 0.102863186765015
cycle= 2 E= -236.681813427226  delta_E= -3.64e-12  |g|= 8.68e-07  |ddm|= 3.17e-06
  HOMO = -0.278674941139786  LUMO = 0.102863219197041
Extra cycle  E= -236.681813427226  delta_E= -4.55e-13  |g|= 5.43e-07  |ddm|= 1.31e-06
converged SCF energy = -236.681813427226


******** <class 'pyscf.grad.rhf.as_scanner.<locals>.SCF_GradScanner'> for <class 'pyscf.scf.hf.as_scanner.<locals>.SCF_Scanner'> ********
max_memory 24000 MB (current use 18606 MB)
--------------- SCF_Scanner gradients ---------------
         x                y                z
0 B     0.0019901541    -0.0012355376     0.0003315333
1 B    -0.0007293080    -0.0007881896     0.0005072624
2 B     0.0035097466     0.0006362407    -0.0000554592
3 B     0.0000926155     0.0060410482     0.0011621952
4 B     0.0023960896    -0.0028728042    -0.0057556404
5 B    -0.0006180329    -0.0010386154     0.0013240854
6 B     0.0016617307     0.0005308079     0.0015313065
7 B    -0.0000456848     0.0006965105     0.0021799128
8 B     0.0034389562    -0.0014201964     0.0004722202
9 B     0.0042664579    -0.0017948672    -0.0003072887
10 B     0.0009916331     0.0003090314    -0.0007220359
11 C     0.0024529284    -0.0012484941    -0.0004424677
12 B     0.0002144154     0.0001338194     0.0000341432
13 B     0.0012768391    -0.0009979134    -0.0006026525
14 B     0.0025164340    -0.0007064939     0.0006489686
15 B     0.0008667774    -0.0007522569    -0.0008711952
16 B     0.0010156106    -0.0010013813    -0.0023104777
17 B    -0.0009780023     0.0008621395    -0.0028899112
18 N     0.0010999844     0.0012617050    -0.0025719096
19 N     0.0012248885    -0.0028330999    -0.0017891309
20 N    -0.0005133745    -0.0004088034     0.0005551406
21 N     0.0003297970     0.0015468734    -0.0000346552
22 N     0.0015913670     0.0003636808     0.0010077636
23 N     0.0012176854    -0.0019895294     0.0015800183
24 N     0.0004008789    -0.0005710606     0.0010141145
25 N     0.0008910004     0.0004725700    -0.0002737847
26 N     0.0010125780    -0.0021601328     0.0012552942
27 N     0.0001423170     0.0007317360    -0.0011636683
28 N     0.0005236292    -0.0011532022    -0.0010441112
29 N     0.0007445689    -0.0004359739     0.0014306004
30 N     0.0018643628    -0.0017848677     0.0005392857
31 N    -0.0019991405    -0.0010357323     0.0009762510
32 N     0.0001688615     0.0000066294    -0.0014436014
33 N    -0.0013506141    -0.0013624155    -0.0004168788
34 N     0.0002027100    -0.0040256922     0.0040788575
35 N     0.0016496215    -0.0016850784     0.0014316212
36 H     0.0009581802     0.0002836543    -0.0005542114
37 H     0.0005073146    -0.0000620893    -0.0003054483
38 H     0.0003402094    -0.0012612115    -0.0003072698
39 H    -0.0010183787    -0.0019141626     0.0001941468
40 H     0.0001299926    -0.0007543471    -0.0002190909
41 H     0.0008485462    -0.0004538955     0.0004709322
42 H     0.0009362783     0.0002063640     0.0003950008
43 H     0.0010479122     0.0018960319     0.0006393448
44 H    -0.0009881977     0.0001452959     0.0011574452
45 H     0.0013521163    -0.0010086905     0.0014143832
46 H     0.0007364597    -0.0008956961     0.0004918439
47 H     0.0003530407    -0.0000353838     0.0001508692
48 H     0.0003855461     0.0005395490    -0.0001979322
49 H     0.0014987629    -0.0013875051    -0.0012534389
50 H     0.0018255349    -0.0006352677    -0.0008399754
----------------------------------------------
44 Energy: -236.681813427
44 Hessian update information:
44 * Change: RMS: 0.00284, max: 0.0854
44 Trust update: Fletcher's parameter: 2.35
44 Linear interpolation:
44 * Energies: -236.68181, -236.68181
44 * Derivatives: 3.33e-08, 3.33e-08
44 * Cubic interpolation was performed: t = 0.898
44 * Interpolated energy: -236.68181
44 Minimization on sphere was performed:
44 * Trust radius: 2.6e-06
44 * Number of negative eigenvalues: 0
44 * Lowest eigenvalue: 0.00434
44 * lambda: -7.12e+03
44 Quadratic step: RMS: 1.4e-07, max: 7.44e-07
44 * Predicted energy change: -4.63e-08
44 Total step: RMS: 4.98e-08, max: 2.64e-07
44 Perfect transformation to cartesians in 1 iterations
44 * RMS(dcart): 1.1e-07, RMS(dq): 4.98e-08
44 Convergence criteria:
44 * Gradient RMS: 0.0015 > 0.0003 => no
44 * Gradient maximum: 0.00604 > 0.00045 => no
44 * Minimization on sphere: Minimization on sphere => no
New geometry (unit Bohr)
   1 B     -9.355251831163  -5.143851457222  -0.086203368353
   2 B      1.933697948817   6.470152213148   0.007131863168
   3 B    -11.924600682294  -1.233611152097   0.087202432227
   4 B     -0.262898019761   2.186425350611  -0.042054888818
   5 B     -2.003538565764  -0.893994157425  -0.121931232051
   6 B     -4.942045913874  10.930549971925   0.142895965505
   7 B     -4.623491553856  -4.933280626167  -0.122744327448
   8 B     -0.265892797967  10.667559628893  -0.044197727999
   9 B     -7.132750334289  -0.905980031113  -0.015376746305
  10 B     -2.809014197487   6.626141260037   0.079513880654
  11 B    -10.111271611330   3.081327780587   0.112288702943
  12 C     -5.501692377993   3.165527351307   0.084502810178
  13 B     -7.753628039920   7.191000940102   0.179977162408
  14 B      4.669263459738   2.668821121758   0.001424012901
  15 B      0.030615420903  -5.413035659783  -0.132078199375
  16 B      2.498249292552  -1.455124721721  -0.100720017669
  17 B      4.777241314734  -5.554933087299  -0.142758191037
  18 B      7.182868032465  -1.367969981939  -0.067656663606
  19 N     -6.965669672873  -6.309783508091  -0.162319609351
  20 N      1.948289033727   9.184747624489  -0.080200602385
  21 N     -9.451684128838  -2.408251746801   0.002086869372
  22 N     -0.499034084415   5.044120618904   0.018272889202
  23 N    -12.253170283642   1.458216373782   0.134698951725
  24 N     -7.430603081523   9.858744032217   0.213926383076
  25 N     -4.603166356426  -2.113322990598  -0.089396068577
  26 N     -2.678755365878   9.383530807874   0.077318360810
  27 N      4.395399725892   5.330579736207   0.056313451930
  28 N     -2.412957418639  -6.501400262375  -0.139928844481
  29 N     -7.654202653163   1.845080447174   0.048846270451
  30 N     -5.448681373438   5.689886326330   0.133588879707
  31 N    -10.088791575309   5.798906160706   0.173858549967
  32 N      2.360437457679   1.247648049669  -0.044127226369
  33 N      2.374280397890  -6.794368416007  -0.157629378815
  34 N      7.043567237572   1.332413806589  -0.012157159389
  35 N      0.104048461121  -2.707461794132  -0.106185233959
  36 N      4.863835731772  -2.819013254694  -0.119753335639
  37 H     -8.897638477604  11.046713024921   0.221300802038
  38 H    -11.727334844788   6.740583227788   0.203260223321
  39 H    -14.019244649429   2.122242923254   0.176334702590
  40 H    -13.757263789830  -2.552214451566   0.119334869910
  41 H    -11.239429920809  -6.377385935152  -0.099169345896
  42 H     -6.877883483607  -8.195917277167  -0.194964411157
  43 H     -2.636013237435  -8.375041177296  -0.144303591434
  44 H      2.366233664714  -8.679796820394  -0.132824408728
  45 H      6.671479551325  -6.770142379587  -0.096043306392
  46 H      9.188880336373  -2.408994832927  -0.008569488864
  47 H      8.672375010439   2.287730707600   0.058440730643
  48 H      5.903987606815   6.465370171941   0.087890964100
  49 H      3.613561455222  10.071790913713  -0.166292964463
  50 H     -0.125932359090  12.907141509112  -0.159106899136
  51 H     -4.707273941206  13.166870058335   0.099715632048


******** <class 'pyscf.scf.hf.as_scanner.<locals>.SCF_Scanner'> flags ********
method = SCF_Scanner-RHF
initial guess = minao
damping factor = 0
level shift factor = 0
DIIS = <class 'pyscf.scf.diis.CDIIS'>
DIIS start cycle = 1
DIIS space = 8
SCF tol = 1e-09
SCF gradient tol = None
max. SCF cycles = 50
direct_scf = False
chkfile to save SCF result = /tmp/tmp24p1wxno
max_memory 24000 MB (current use 1147 MB)
Set gradient conv threshold to 3.16228e-05
init E= -236.681812750243
  HOMO = -0.278675040288198  LUMO = 0.102863129391212
cycle= 1 E= -236.681813413688  delta_E= -6.63e-07  |g|= 6e-07  |ddm|= 1.94e-06
  HOMO = -0.278674959352261  LUMO = 0.102863211311271
cycle= 2 E= -236.681813413687  delta_E= 9.09e-13  |g|= 3.88e-07  |ddm|= 1.12e-06
  HOMO = -0.278674966707638  LUMO = 0.102863198768575
Extra cycle  E= -236.681813413689  delta_E= -1.82e-12  |g|= 2.49e-07  |ddm|= 5.73e-07
converged SCF energy = -236.681813413689


******** <class 'pyscf.grad.rhf.as_scanner.<locals>.SCF_GradScanner'> for <class 'pyscf.scf.hf.as_scanner.<locals>.SCF_Scanner'> ********
max_memory 24000 MB (current use 18606 MB)
--------------- SCF_Scanner gradients ---------------
         x                y                z
0 B     0.0019901390    -0.0012355364     0.0003315339
1 B    -0.0007293764    -0.0007882102     0.0005072610
2 B     0.0035097024     0.0006362162    -0.0000554582
3 B     0.0000925553     0.0060410169     0.0011621755
4 B     0.0023960566    -0.0028727703    -0.0057556145
5 B    -0.0006180083    -0.0010386170     0.0013240823
6 B     0.0016617456     0.0005308285     0.0015313048
7 B    -0.0000456902     0.0006964751     0.0021799114
8 B     0.0034389743    -0.0014202280     0.0004722193
9 B     0.0042664953    -0.0017949043    -0.0003072910
10 B     0.0009916243     0.0003090338    -0.0007220349
11 C     0.0024528836    -0.0012484080    -0.0004424613
12 B     0.0002144399     0.0001338098     0.0000341418
13 B     0.0012768945    -0.0009978731    -0.0006026498
14 B     0.0025164237    -0.0007064535     0.0006489672
15 B     0.0008667477    -0.0007523508    -0.0008711945
16 B     0.0010155837    -0.0010013713    -0.0023104749
17 B    -0.0009779626     0.0008621085    -0.0028899069
18 N     0.0010999657     0.0012616653    -0.0025719081
19 N     0.0012249008    -0.0028330656    -0.0017891274
20 N    -0.0005133572    -0.0004087923     0.0005551394
21 N     0.0003298101     0.0015467964    -0.0000346535
22 N     0.0015913572     0.0003636841     0.0010077625
23 N     0.0012176717    -0.0019895107     0.0015800163
24 N     0.0004008478    -0.0005710538     0.0010141095
25 N     0.0008909967     0.0004725812    -0.0002737840
26 N     0.0010125805    -0.0021601244     0.0012552937
27 N     0.0001423136     0.0007317027    -0.0011636661
28 N     0.0005236241    -0.0011531838    -0.0010441105
29 N     0.0007445461    -0.0004360396     0.0014305948
30 N     0.0018643323    -0.0017848476     0.0005392854
31 N    -0.0019990616    -0.0010357445     0.0009762541
32 N     0.0001688763     0.0000066295    -0.0014436018
33 N    -0.0013505857    -0.0013623876    -0.0004168786
34 N     0.0002027432    -0.0040255714     0.0040788471
35 N     0.0016496077    -0.0016850455     0.0014316180
36 H     0.0009581816     0.0002836480    -0.0005542107
37 H     0.0005073220    -0.0000620968    -0.0003054484
38 H     0.0003402103    -0.0012612051    -0.0003072699
39 H    -0.0010183569    -0.0019141431     0.0001941462
40 H     0.0001299993    -0.0007543419    -0.0002190909
41 H     0.0008485453    -0.0004538955     0.0004709316
42 H     0.0009362754     0.0002063515     0.0003950001
43 H     0.0010479119     0.0018959857     0.0006393440
44 H    -0.0009881698     0.0001452857     0.0011574434
45 H     0.0013521130    -0.0010086850     0.0014143807
46 H     0.0007364659    -0.0008956879     0.0004918434
47 H     0.0003530564    -0.0000353810     0.0001508697
48 H     0.0003855503     0.0005395464    -0.0001979310
49 H     0.0014987601    -0.0013874916    -0.0012534370
50 H     0.0018255267    -0.0006352627    -0.0008399734
----------------------------------------------
45 Energy: -236.681813414
45 Hessian update information:
45 * Change: RMS: 0.00166, max: 0.0565
45 Trust update: Fletcher's parameter: -0.292
45 Linear interpolation:
45 * Energies: -236.68181, -236.68181
45 * Derivatives: 4.97e-08, 4.97e-08
45 * Cubic interpolation was performed: t = 0.898
45 * Interpolated energy: -236.68181
