#INFO: **** input file is /tigress/xingz/pydmfet/examples/research/CBVN/CBVN.py ****
from pydmfet import locints, sdmfet,oep,tools,dfet_ao
from pydmfet.qcwrap.pyscf_rks_ao import rks_ao
from pyscf import gto, scf, ao2mo, geomopt
import numpy as np
from pyscf.tools import molden
import time
from pydmfet import dfet_ao
from pydmfet.dfet_ao import dfet

bas ='stuttgartdz'
ecp = 'stuttgartdz'
temp = 0.005


mol = gto.Mole()
mol.atom = open('CBVN3.xyz').read()
mol.basis = {'H':'ccpvdz', 'B':bas, 'C':bas, 'N':bas}
mol.ecp = ecp
mol.charge = 0
mol.build(max_memory = 24000, verbose=4)


mf = scf.RHF(mol)
#mf = rks_ao(mol,smear_sigma = temp)
#mf.xc = "pbe,pbe"
mf.max_cycle = 50

#DMguess = None
#mf.scf(dm0=DMguess)

opt1 = geomopt.optimize(mf)
#INFO: ******************** input file end ********************


System: uname_result(system='Linux', node='tiger-h21c2n16', release='3.10.0-957.27.2.el7.x86_64', version='#1 SMP Tue Jul 30 11:12:20 EDT 2019', machine='x86_64', processor='x86_64')  Threads 40
Python 3.7.0 (default, Jun 28 2018, 13:15:42) 
[GCC 7.2.0]
numpy 1.16.4  scipy 1.4.0.dev0+0f78e0f
Date: Sat Sep  7 12:53:11 2019
PySCF version 1.5
PySCF path  /home/xingz/.local/lib/python3.7/site-packages/pyscf

[CONFIG] conf_file None
[INPUT] verbose = 4
[INPUT] num. atoms = 51
[INPUT] num. electrons = 160
[INPUT] charge = 0
[INPUT] spin (= nelec alpha-beta = 2S) = 0
[INPUT] symmetry False subgroup None
[INPUT] Mole.unit = angstrom
[INPUT]  1 B     -4.956829328376  -2.720902991172  -0.029124976261 AA   -9.367049876842  -5.141761464824  -0.055038228519 Bohr
[INPUT]  2 B      1.027059313286   3.422850587027   0.005607095394 AA    1.940860815794   6.468250174787   0.010595874648 Bohr
[INPUT]  3 B     -6.319782535944  -0.650918586645   0.043523487577 AA  -11.942658159743  -1.230057858148   0.082247471506 Bohr
[INPUT]  4 B     -0.129416240297   1.147307038319  -0.019366700062 AA   -0.244561250233   2.168096083209  -0.036597759054 Bohr
[INPUT]  5 B     -1.062990025178  -0.472186983520  -0.050110113474 AA   -2.008760020731  -0.892304078437  -0.094694390536 Bohr
[INPUT]  6 B     -2.614878485627   5.782940229227   0.066140843915 AA   -4.941404186852  10.928173227968   0.124988080646 Bohr
[INPUT]  7 B     -2.451207011439  -2.614385055525  -0.054669516129 AA   -4.632109926234  -4.940471739097  -0.103310412846 Bohr
[INPUT]  8 B     -0.141253142120   5.642268367503  -0.004192277788 AA   -0.266929752840  10.662341935877  -0.007922256858 Bohr
[INPUT]  9 B     -3.782995504915  -0.477944508233  -0.002928402173 AA   -7.148825434750  -0.903184223300  -0.005533878090 Bohr
[INPUT] 10 B     -1.489724217206   3.501073441313   0.031947684679 AA   -2.815170771651   6.616069946069   0.060372374356 Bohr
[INPUT] 11 B     -5.359327510500   1.632348003577   0.052185604741 AA  -10.127661206691   3.084690666741   0.098616500605 Bohr
[INPUT] 12 C     -2.920358694923   1.674846975123   0.038478335098 AA   -5.518678118896   3.165002083539   0.072713515065 Bohr
[INPUT] 13 B     -4.106499432379   3.805872439598   0.073631584270 AA   -7.760159257879   7.192056575870   0.139143528388 Bohr
[INPUT] 14 B      2.483365515083   1.415607427865  -0.001712849914 AA    4.692880690696   2.675110338564  -0.003236817230 Bohr
[INPUT] 15 B      0.016712322480  -2.863264961729  -0.070916961762 AA    0.031581712393  -5.410786599730  -0.134013635316 Bohr
[INPUT] 16 B      1.329461277109  -0.769365027860  -0.050837970565 AA    2.512317706951  -1.453889192474  -0.096069841097 Bohr
[INPUT] 17 B      2.534177333220  -2.940336772220  -0.079807235207 AA    4.788901110867  -5.556431213483  -0.150813817301 Bohr
[INPUT] 18 B      3.812439177328  -0.723127814782  -0.038764687467 AA    7.204465911713  -1.366513522993  -0.073254642617 Bohr
[INPUT] 19 N     -3.692557997537  -3.342558968286  -0.063185816921 AA   -6.977923314418  -6.316521005269  -0.119403888937 Bohr
[INPUT] 20 N      1.032338662250   4.861121533925  -0.019613760235 AA    1.950837339453   9.186188357343  -0.037064635116 Bohr
[INPUT] 21 N     -5.009067517420  -1.272992201608   0.005858390622 AA   -9.465765747380  -2.405606619745   0.011070753807 Bohr
[INPUT] 22 N     -0.261183897624   2.662160508509   0.006560581212 AA   -0.493566034655   5.030754260714   0.012397701708 Bohr
[INPUT] 23 N     -6.493380964153   0.774025241570   0.062862742391 AA  -12.270711644713   1.462695720067   0.118793366558 Bohr
[INPUT] 24 N     -3.933642993917   5.217764247491   0.089724808505 AA   -7.433507930318   9.860145410306   0.169555314653 Bohr
[INPUT] 25 N     -2.440887911827  -1.118891094766  -0.036554590677 AA   -4.612609654115  -2.114397732323  -0.069078164975 Bohr
[INPUT] 26 N     -1.418491755024   4.960573313868   0.036562519078 AA   -2.680560926948   9.374124984037   0.069093147481 Bohr
[INPUT] 27 N      2.333210238917   2.824726685263   0.024014366483 AA    4.409128342584   5.337959811897   0.045380575709 Bohr
[INPUT] 28 N     -1.277180682757  -3.442481732353  -0.069235338181 AA   -2.413521701995  -6.505347662966  -0.130835827303 Bohr
[INPUT] 29 N     -4.059521450236   0.977883443105   0.025321789178 AA   -7.671383737743   1.847931889216   0.047851246530 Bohr
[INPUT] 30 N     -2.888185883134   3.009845628702   0.052565584138 AA   -5.457880315958   5.687783915465   0.099334557599 Bohr
[INPUT] 31 N     -5.344881727651   3.071798650320   0.075836597532 AA  -10.100362633453   5.804858158913   0.143310399554 Bohr
[INPUT] 32 N      1.262827753461   0.660095168352  -0.022887709845 AA    2.386398596541   1.247399084334  -0.043251503226 Bohr
[INPUT] 33 N      1.259730802773  -3.597537137638  -0.086585116477 AA    2.380546207920  -6.798359913087  -0.163622156605 Bohr
[INPUT] 34 N      3.742558000518   0.708622453959  -0.009852603072 AA    7.072409626279   1.339102363700  -0.018618721420 Bohr
[INPUT] 35 N      0.057785068451  -1.428260571358  -0.056782955416 AA    0.109197953461  -2.699021314382  -0.107304234280 Bohr
[INPUT] 36 N      2.581700740470  -1.490700567493  -0.062841019583 AA    4.878707335076  -2.817015806295  -0.118752316400 Bohr
[INPUT] 37 H     -4.710997388252   5.844298333852   0.100419149990 AA   -8.902494837337  11.044123241233   0.189764691143 Bohr
[INPUT] 38 H     -6.210824977042   3.570900074986   0.092124491544 AA  -11.736758214218   6.748023159913   0.174090058384 Bohr
[INPUT] 39 H     -7.425748092816   1.130761966404   0.082884381774 AA  -14.032630165434   2.136830428579   0.156628781556 Bohr
[INPUT] 40 H     -7.286975164436  -1.346146357218   0.059397991277 AA  -13.770387337292  -2.543847938723   0.112245935863 Bohr
[INPUT] 41 H     -5.952917947717  -3.373201976942  -0.030471723510 AA  -11.249384563193  -6.374427899263  -0.057583211977 Bohr
[INPUT] 42 H     -3.648382297940  -4.340812592709  -0.079852951986 AA   -6.894443340818  -8.202946958282  -0.150900209491 Bohr
[INPUT] 43 H     -1.393141849029  -4.435063542049  -0.073994182777 AA   -2.632656547335  -8.381055439516  -0.139828740260 Bohr
[INPUT] 44 H      1.253687105595  -4.598121905549  -0.085602975385 AA    2.369125275473  -8.689191088851  -0.161766178925 Bohr
[INPUT] 45 H      3.540714045198  -3.582621666359  -0.075337807011 AA    6.690979830826  -6.770173757351  -0.142367822077 Bohr
[INPUT] 46 H      4.872907808771  -1.274330880566  -0.027861085808 AA    9.208461188832  -2.408136356345  -0.052649821711 Bohr
[INPUT] 47 H      4.604646292198   1.215121264895   0.016073289437 AA    8.701520392749   2.296246398787   0.030374114957 Bohr
[INPUT] 48 H      3.131656942197   3.425225371525   0.040882411999 AA    5.917973936845   6.472737867094   0.077256561990 Bohr
[INPUT] 49 H      1.915989977786   5.326981477366  -0.048295304444 AA    3.620696315427  10.066536062854  -0.091264898502 Bohr
[INPUT] 50 H     -0.074926641902   6.830175607537  -0.035644274241 AA   -0.141590832628  12.907161280930  -0.067357916225 Bohr
[INPUT] 51 H     -2.496343909032   6.967156875429   0.062307144860 AA   -4.717406300796  13.166018361442   0.117743439389 Bohr

nuclear repulsion = 1562.85678457291
number of shells = 189
number of NR pGTOs = 681
number of NR cGTOs = 363
basis = {'H': 'ccpvdz', 'B': 'stuttgartdz', 'C': 'stuttgartdz', 'N': 'stuttgartdz'}
ecp = stuttgartdz
CPU time:         4.75
Create scanner for <class 'pyscf.grad.rhf.Gradients'>
Create scanner for <class 'pyscf.scf.hf.RHF'>
0 Internal coordinates:
0 * Number of fragments: 1
0 * Number of internal coordinates: 347
0 * Number of strong bonds: 61
0 * Number of strong angles: 106
0 * Number of strong dihedrals: 180
New geometry (unit Bohr)
   1 B     -9.367049876842  -5.141761464824  -0.055038228519
   2 B      1.940860815794   6.468250174787   0.010595874648
   3 B    -11.942658159743  -1.230057858148   0.082247471506
   4 B     -0.244561250233   2.168096083209  -0.036597759054
   5 B     -2.008760020731  -0.892304078437  -0.094694390536
   6 B     -4.941404186852  10.928173227968   0.124988080646
   7 B     -4.632109926234  -4.940471739097  -0.103310412846
   8 B     -0.266929752840  10.662341935877  -0.007922256858
   9 B     -7.148825434750  -0.903184223300  -0.005533878090
  10 B     -2.815170771651   6.616069946069   0.060372374356
  11 B    -10.127661206691   3.084690666741   0.098616500605
  12 C     -5.518678118896   3.165002083539   0.072713515065
  13 B     -7.760159257879   7.192056575870   0.139143528388
  14 B      4.692880690696   2.675110338564  -0.003236817230
  15 B      0.031581712393  -5.410786599730  -0.134013635316
  16 B      2.512317706951  -1.453889192474  -0.096069841097
  17 B      4.788901110867  -5.556431213483  -0.150813817301
  18 B      7.204465911713  -1.366513522993  -0.073254642617
  19 N     -6.977923314418  -6.316521005269  -0.119403888937
  20 N      1.950837339453   9.186188357343  -0.037064635116
  21 N     -9.465765747380  -2.405606619745   0.011070753807
  22 N     -0.493566034655   5.030754260714   0.012397701708
  23 N    -12.270711644713   1.462695720067   0.118793366558
  24 N     -7.433507930318   9.860145410306   0.169555314653
  25 N     -4.612609654115  -2.114397732323  -0.069078164975
  26 N     -2.680560926948   9.374124984037   0.069093147481
  27 N      4.409128342584   5.337959811897   0.045380575709
  28 N     -2.413521701995  -6.505347662966  -0.130835827303
  29 N     -7.671383737743   1.847931889216   0.047851246530
  30 N     -5.457880315958   5.687783915465   0.099334557599
  31 N    -10.100362633453   5.804858158913   0.143310399554
  32 N      2.386398596541   1.247399084334  -0.043251503226
  33 N      2.380546207920  -6.798359913087  -0.163622156605
  34 N      7.072409626279   1.339102363700  -0.018618721420
  35 N      0.109197953461  -2.699021314382  -0.107304234280
  36 N      4.878707335076  -2.817015806295  -0.118752316400
  37 H     -8.902494837337  11.044123241233   0.189764691143
  38 H    -11.736758214218   6.748023159913   0.174090058384
  39 H    -14.032630165434   2.136830428579   0.156628781556
  40 H    -13.770387337292  -2.543847938723   0.112245935863
  41 H    -11.249384563193  -6.374427899263  -0.057583211977
  42 H     -6.894443340818  -8.202946958282  -0.150900209491
  43 H     -2.632656547335  -8.381055439516  -0.139828740260
  44 H      2.369125275473  -8.689191088851  -0.161766178925
  45 H      6.690979830826  -6.770173757351  -0.142367822077
  46 H      9.208461188832  -2.408136356345  -0.052649821711
  47 H      8.701520392749   2.296246398787   0.030374114957
  48 H      5.917973936845   6.472737867094   0.077256561990
  49 H      3.620696315427  10.066536062854  -0.091264898502
  50 H     -0.141590832628  12.907161280930  -0.067357916225
  51 H     -4.717406300796  13.166018361442   0.117743439389


******** <class 'pyscf.scf.hf.as_scanner.<locals>.SCF_Scanner'> flags ********
method = SCF_Scanner-RHF
initial guess = minao
damping factor = 0
level shift factor = 0
DIIS = <class 'pyscf.scf.diis.CDIIS'>
DIIS start cycle = 1
DIIS space = 8
SCF tol = 1e-09
SCF gradient tol = None
max. SCF cycles = 50
direct_scf = False
chkfile to save SCF result = /tmp/tmp3jycwfgm
max_memory 24000 MB (current use 75 MB)
Set gradient conv threshold to 3.16228e-05
init E= -196.601842306819
  HOMO = 0.154345437324993  LUMO = 0.196345902134075
cycle= 1 E= -229.521570936507  delta_E= -32.9  |g|= 4.58  |ddm|= 15.1
  HOMO = -0.488810826244729  LUMO = -0.283520899263804
cycle= 2 E= -234.774801212063  delta_E= -5.25  |g|= 2.99  |ddm|= 8.97
  HOMO = -0.313099803265328  LUMO = 0.0269661103121058
cycle= 3 E= -236.611175562148  delta_E= -1.84  |g|= 0.328  |ddm|= 2.26
  HOMO = -0.237315962098276  LUMO = 0.121502611309297
cycle= 4 E= -236.674006960222  delta_E= -0.0628  |g|= 0.107  |ddm|= 0.814
  HOMO = -0.287119687822396  LUMO = 0.100390383199669
cycle= 5 E= -236.680046251046  delta_E= -0.00604  |g|= 0.0361  |ddm|= 0.27
  HOMO = -0.280119995042436  LUMO = 0.101057982721708
cycle= 6 E= -236.680898210099  delta_E= -0.000852  |g|= 0.0146  |ddm|= 0.0814
  HOMO = -0.278165875493955  LUMO = 0.102885953822022
cycle= 7 E= -236.681031718495  delta_E= -0.000134  |g|= 0.00492  |ddm|= 0.0373
  HOMO = -0.279498038320508  LUMO = 0.102712381775526
cycle= 8 E= -236.681044446964  delta_E= -1.27e-05  |g|= 0.00104  |ddm|= 0.0142
  HOMO = -0.279204750235965  LUMO = 0.102807054675895
cycle= 9 E= -236.681044913217  delta_E= -4.66e-07  |g|= 0.000249  |ddm|= 0.00236
  HOMO = -0.279242528600994  LUMO = 0.102789542833892
cycle= 10 E= -236.681044949571  delta_E= -3.64e-08  |g|= 8.75e-05  |ddm|= 0.000707
  HOMO = -0.279242738252302  LUMO = 0.102792239067958
cycle= 11 E= -236.681044954408  delta_E= -4.84e-09  |g|= 4.09e-05  |ddm|= 0.000196
  HOMO = -0.279239743831992  LUMO = 0.102792824822809
cycle= 12 E= -236.681044956078  delta_E= -1.67e-09  |g|= 2.06e-05  |ddm|= 0.000115
  HOMO = -0.279241563696036  LUMO = 0.10279209979542
cycle= 13 E= -236.681044956824  delta_E= -7.47e-10  |g|= 8.96e-06  |ddm|= 9.55e-05
  HOMO = -0.279241187108255  LUMO = 0.102792392601048
Extra cycle  E= -236.681044956929  delta_E= -1.04e-10  |g|= 6.02e-06  |ddm|= 2.61e-05
converged SCF energy = -236.681044956929


******** <class 'pyscf.grad.rhf.as_scanner.<locals>.SCF_GradScanner'> for <class 'pyscf.scf.hf.as_scanner.<locals>.SCF_Scanner'> ********
max_memory 24000 MB (current use 18235 MB)
--------------- SCF_Scanner gradients ---------------
         x                y                z
0 B     0.0011152185    -0.0006702763     0.0001447704
1 B     0.0006836600    -0.0004277644     0.0000518457
2 B     0.0016087261    -0.0002869178    -0.0000311193
3 B     0.0012297599     0.0004133275     0.0004460461
4 B     0.0004074520    -0.0021523098    -0.0031540858
5 B     0.0004211084    -0.0004876065     0.0005415254
6 B     0.0009515328    -0.0001908345     0.0006788452
7 B     0.0002811072    -0.0001997351     0.0010010753
8 B     0.0016466933    -0.0007194559     0.0001420186
9 B     0.0016285182    -0.0010840792    -0.0003057224
10 B     0.0007394696    -0.0004464390    -0.0003786286
11 C     0.0001502900    -0.0000420241     0.0000057651
12 B     0.0007637572    -0.0005409313    -0.0000794313
13 B     0.0011829785    -0.0005028404    -0.0002762298
14 B     0.0011697019    -0.0005251989     0.0003304403
15 B     0.0007612709    -0.0003111949    -0.0002773653
16 B     0.0011453497    -0.0004888374    -0.0008930993
17 B     0.0006207255    -0.0002741197    -0.0011880622
18 N     0.0003981303    -0.0007315832    -0.0013173771
19 N     0.0013693013    -0.0009366654    -0.0008400673
20 N     0.0003924899    -0.0003059450     0.0003759483
21 N     0.0008536957    -0.0009960641     0.0000156531
22 N     0.0007600503    -0.0000406263     0.0005713512
23 N     0.0007767327    -0.0004486800     0.0009027505
24 N     0.0001799419    -0.0003836521     0.0006680997
25 N     0.0011104384    -0.0003959314     0.0001259164
26 N     0.0010147750    -0.0005173478     0.0009026415
27 N     0.0008223582    -0.0007334944    -0.0004448935
28 N     0.0009008105    -0.0002814821    -0.0005188111
29 N     0.0006348997    -0.0007290337     0.0007459305
30 N     0.0007081361    -0.0003414255     0.0003282441
31 N     0.0014622306    -0.0006907228     0.0005226676
32 N     0.0005162666    -0.0001087636    -0.0010318645
33 N     0.0010311673    -0.0003667154    -0.0004016916
34 N     0.0005402097     0.0005336521     0.0018449006
35 N     0.0009092933    -0.0003965278     0.0002013339
36 H     0.0010002989    -0.0003787044    -0.0002589084
37 H     0.0009151949    -0.0005125806    -0.0001577171
38 H     0.0007798670    -0.0007156563    -0.0001712974
39 H     0.0003345311    -0.0007519284     0.0001528078
40 H     0.0006894435    -0.0004915984    -0.0001222645
41 H     0.0008688585    -0.0004969789     0.0002123814
42 H     0.0007678276    -0.0005916358     0.0002166646
43 H     0.0008850427    -0.0009237766     0.0003756408
44 H     0.0004681607    -0.0003422688     0.0004899806
45 H     0.0010084701    -0.0006191924     0.0006285097
46 H     0.0008911661    -0.0004971134     0.0002890827
47 H     0.0007098264    -0.0003543972     0.0001543854
48 H     0.0006753742    -0.0002180697    -0.0001545811
49 H     0.0009943438    -0.0006566671    -0.0006355011
50 H     0.0009980884    -0.0004641562    -0.0003409191
----------------------------------------------
1 Energy: -236.681044957
1 Minimization on sphere was performed:
1 * Trust radius: 0.3
1 * Number of negative eigenvalues: 0
1 * Lowest eigenvalue: 0.00491
1 * lambda: -0.00276
1 Quadratic step: RMS: 0.0161, max: 0.0579
1 * Predicted energy change: -0.000536
1 Total step: RMS: 0.0161, max: 0.0579
1 Perfect transformation to cartesians in 5 iterations
1 * RMS(dcart): 5.72e-08, RMS(dq): 7.61e-08
1 Convergence criteria:
1 * Gradient RMS: 0.000762 > 0.0003 => no
1 * Gradient maximum: 0.00315 > 0.00045 => no
1 * Minimization on sphere: Minimization on sphere => no
New geometry (unit Bohr)
   1 B     -9.364373938231  -5.142539785613   0.031053185272
   2 B      1.939531886027   6.470324635826   0.040922747496
   3 B    -11.941206542052  -1.230419155700   0.038751783356
   4 B     -0.248766070742   2.170651520706   0.005339142575
   5 B     -2.006808237003  -0.890961755090   0.010305778092
   6 B     -4.942833787560  10.931996567723   0.094090097403
   7 B     -4.629638327857  -4.941241920962  -0.018546053262
   8 B     -0.264601013365  10.666223852881   0.108983908287
   9 B     -7.146509320582  -0.904028649920   0.029648191245
  10 B     -2.816210308421   6.622171803960   0.042928343051
  11 B    -10.122602526472   3.083414418447   0.037320053822
  12 C     -5.512061140662   3.164856667549   0.052595102267
  13 B     -7.758454221633   7.192257348639   0.036121575224
  14 B      4.686151567142   2.673322451928  -0.026801156329
  15 B      0.030933188198  -5.413147128200  -0.113233441592
  16 B      2.509302969709  -1.455901583369  -0.080143388616
  17 B      4.787555152184  -5.558725197098  -0.186870539859
  18 B      7.200207555672  -1.368029019338  -0.131598967935
  19 N     -6.974398972590  -6.317113656513   0.013046313492
  20 N      1.951762961609   9.188244856986   0.094490173581
  21 N     -9.463229439082  -2.406181670403   0.029604625758
  22 N     -0.495676153567   5.035048453811   0.026294490633
  23 N    -12.266630754731   1.462533192407   0.034313466084
  24 N     -7.434191777540   9.860681040336   0.061801389761
  25 N     -4.609139125630  -2.115208630243   0.011393044174
  26 N     -2.680716764070   9.379485605849   0.078085638906
  27 N      4.406150433489   5.336494335053   0.018842801822
  28 N     -2.412990357891  -6.506991960440  -0.067672792605
  29 N     -7.665672717278   1.847451833337   0.041370732374
  30 N     -5.455849982630   5.688872716416   0.030269271841
  31 N    -10.097432112647   5.803638755627   0.038977574071
  32 N      2.379845453008   1.246086033004  -0.031088523363
  33 N      2.379721406993  -6.800857566321  -0.169186996369
  34 N      7.065141769563   1.337420270746  -0.081012012420
  35 N      0.107518086675  -2.701726420369  -0.083541461521
  36 N      4.875068510268  -2.819464720917  -0.137929793746
  37 H     -8.905639953965  11.041373878004   0.098459758836
  38 H    -11.734705535124   6.745942766016   0.056076949475
  39 H    -14.027539644656   2.140476425211   0.043393143370
  40 H    -13.768327663357  -2.543221592294   0.047393889609
  41 H    -11.245751556734  -6.376126302903   0.040318478147
  42 H     -6.891017267721  -8.203620359129  -0.011419860310
  43 H     -2.632668237651  -8.382340340121  -0.086822271563
  44 H      2.367178838575  -8.690193533614  -0.218275799024
  45 H      6.689949290780  -6.769507205491  -0.286274370186
  46 H      9.203438972822  -2.405301213421  -0.233597269695
  47 H      8.693477611536   2.296692272263  -0.102309288825
  48 H      5.917988041861   6.467634867832   0.038266640587
  49 H      3.624470068915  10.064768725146   0.111662037901
  50 H     -0.138831310096  12.910891934108   0.183078641481
  51 H     -4.723442457697  13.168854542219   0.172557082425


******** <class 'pyscf.scf.hf.as_scanner.<locals>.SCF_Scanner'> flags ********
method = SCF_Scanner-RHF
initial guess = minao
damping factor = 0
level shift factor = 0
DIIS = <class 'pyscf.scf.diis.CDIIS'>
DIIS start cycle = 1
DIIS space = 8
SCF tol = 1e-09
SCF gradient tol = None
max. SCF cycles = 50
direct_scf = False
chkfile to save SCF result = /tmp/tmp3jycwfgm
max_memory 24000 MB (current use 917 MB)
Set gradient conv threshold to 3.16228e-05
init E= -236.677204600378
  HOMO = -0.280176758891281  LUMO = 0.101586188671866
cycle= 1 E= -236.680938952477  delta_E= -0.00373  |g|= 0.0251  |ddm|= 0.171
  HOMO = -0.279432726171821  LUMO = 0.102686422370326
cycle= 2 E= -236.681335780064  delta_E= -0.000397  |g|= 0.00907  |ddm|= 0.04
  HOMO = -0.27945492228863  LUMO = 0.102505948968836
cycle= 3 E= -236.681407394293  delta_E= -7.16e-05  |g|= 0.00205  |ddm|= 0.0235
  HOMO = -0.279497027055798  LUMO = 0.102588976573953
cycle= 4 E= -236.681410088891  delta_E= -2.69e-06  |g|= 0.000949  |ddm|= 0.00407
  HOMO = -0.279460728518083  LUMO = 0.102591228546051
cycle= 5 E= -236.68141088809  delta_E= -7.99e-07  |g|= 0.000272  |ddm|= 0.00285
  HOMO = -0.279475032492157  LUMO = 0.102576753133998
cycle= 6 E= -236.681410985754  delta_E= -9.77e-08  |g|= 0.000129  |ddm|= 0.00103
  HOMO = -0.279472880598306  LUMO = 0.102579232306877
cycle= 7 E= -236.681411008793  delta_E= -2.3e-08  |g|= 6.44e-05  |ddm|= 0.000492
  HOMO = -0.27947062109581  LUMO = 0.102581479054364
cycle= 8 E= -236.68141101631  delta_E= -7.52e-09  |g|= 2.44e-05  |ddm|= 0.000339
  HOMO = -0.27947242072611  LUMO = 0.102579697660034
cycle= 9 E= -236.681411017478  delta_E= -1.17e-09  |g|= 8.8e-06  |ddm|= 0.000145
  HOMO = -0.279471753388784  LUMO = 0.102580073798597
cycle= 10 E= -236.681411017608  delta_E= -1.31e-10  |g|= 3.91e-06  |ddm|= 4.31e-05
  HOMO = -0.279471960605471  LUMO = 0.102580050628264
Extra cycle  E= -236.681411017624  delta_E= -1.55e-11  |g|= 2.38e-06  |ddm|= 9.79e-06
converged SCF energy = -236.681411017624


******** <class 'pyscf.grad.rhf.as_scanner.<locals>.SCF_GradScanner'> for <class 'pyscf.scf.hf.as_scanner.<locals>.SCF_Scanner'> ********
max_memory 24000 MB (current use 18559 MB)
--------------- SCF_Scanner gradients ---------------
         x                y                z
0 B     0.0008740583    -0.0005605735     0.0001828845
1 B     0.0007471800    -0.0002816830    -0.0006270899
2 B     0.0011745218    -0.0005201705     0.0002382239
3 B     0.0009536026     0.0009511914    -0.0012043225
4 B     0.0008928704    -0.0011527505     0.0042687221
5 B     0.0006901094    -0.0003938990    -0.0017122296
6 B     0.0008400758    -0.0003857090    -0.0009424277
7 B     0.0005485824    -0.0002788551    -0.0020889970
8 B     0.0011234384    -0.0005595386    -0.0002502503
9 B     0.0011827797    -0.0005836505     0.0001137653
10 B     0.0007437811    -0.0005652873     0.0003701231
11 C     0.0015509119    -0.0008731170     0.0006852620
12 B     0.0008725407    -0.0003928055    -0.0001568144
13 B     0.0008880444    -0.0005001193     0.0005841922
14 B     0.0009982448    -0.0006984813    -0.0006497754
15 B     0.0009736012    -0.0002413486     0.0009741270
16 B     0.0012358888    -0.0006162792     0.0025168001
17 B     0.0008769891    -0.0005891004     0.0037017417
18 N     0.0009103230    -0.0005014006     0.0013466923
19 N     0.0010893553    -0.0007632360     0.0015602373
20 N     0.0006684263    -0.0005463630    -0.0006127631
21 N     0.0005089881    -0.0004854321    -0.0001082416
22 N     0.0008672063    -0.0002203633    -0.0007312639
23 N     0.0007546307    -0.0004926934    -0.0003902049
24 N     0.0009761699    -0.0005040379    -0.0007587156
25 N     0.0010187845    -0.0003208982     0.0014251905
26 N     0.0009812402    -0.0006932128    -0.0000063912
27 N     0.0008042290    -0.0003927617     0.0013799745
28 N     0.0008046316    -0.0003561023     0.0004069337
29 N     0.0006233594    -0.0004716073    -0.0007282429
30 N     0.0009597479    -0.0005456335    -0.0004661836
31 N     0.0005031497    -0.0009196554    -0.0003198698
32 N     0.0006705945    -0.0005894229     0.0002261471
33 N     0.0007021228    -0.0004520999    -0.0012307620
34 N     0.0003915308    -0.0003317231    -0.0036202441
35 N     0.0006719010    -0.0006142976    -0.0032525503
36 H     0.0009135532    -0.0004266943     0.0003851468
37 H     0.0008560385    -0.0004652845     0.0002270262
38 H     0.0008014507    -0.0006133847     0.0001745420
39 H     0.0006076881    -0.0005978738    -0.0000069333
40 H     0.0007757424    -0.0004902771    -0.0000609531
41 H     0.0008361325    -0.0004744052    -0.0003990567
42 H     0.0008218711    -0.0004832338    -0.0002174277
43 H     0.0008862695    -0.0004610364    -0.0002660129
44 H     0.0006478225    -0.0004163075    -0.0011666404
45 H     0.0008532039    -0.0005129924    -0.0015109126
46 H     0.0008210653    -0.0005345597    -0.0002164370
47 H     0.0007630283    -0.0004112818     0.0001237473
48 H     0.0007888892    -0.0003916069    -0.0001801404
49 H     0.0009276251    -0.0005767855     0.0009095600
50 H     0.0008857685    -0.0005085858     0.0009013586
----------------------------------------------
2 Energy: -236.681411018
2 Hessian update information:
2 * Change: RMS: 7.32e-05, max: 0.00163
2 Trust update: Fletcher's parameter: 0.683
2 Linear interpolation:
2 * Energies: -236.68141, -236.68104
2 * Derivatives: -0.000999, 0.000824
2 * Quartic interpolation was performed: t = 0.234
2 * Interpolated energy: -236.68152
2 Pure RFO step was performed:
2 * Trust radius: 0.3
2 * Number of negative eigenvalues: 0
2 * Lowest eigenvalue: 0.00483
2 * lambda: -0.000411
2 Quadratic step: RMS: 0.00992, max: 0.0478
2 * Predicted energy change: -0.000212
2 Total step: RMS: 0.0109, max: 0.0566
2 Perfect transformation to cartesians in 4 iterations
2 * RMS(dcart): 2.74e-07, RMS(dq): 2.14e-07
2 Convergence criteria:
2 * Gradient RMS: 0.00098 > 0.0003 => no
2 * Gradient maximum: 0.00427 > 0.00045 => no
2 * Step RMS: 0.0109 > 0.0012 => no
2 * Step maximum: 0.0566 > 0.0018 => no
New geometry (unit Bohr)
   1 B     -9.365115249559  -5.140982470164  -0.062416172357
   2 B      1.938555821352   6.470320485360  -0.034570306170
   3 B    -11.941916699207  -1.230477906778   0.053360435788
   4 B     -0.249404844426   2.169793276394  -0.018493796276
   5 B     -2.007354471924  -0.889929080867  -0.033144836024
   6 B     -4.942218114228  10.931530010942   0.116625981679
   7 B     -4.630017656652  -4.939665377927  -0.105287804250
   8 B     -0.264532763718  10.666239151915   0.048004668664
   9 B     -7.147502241928  -0.903480116782  -0.001996139934
  10 B     -2.817212853372   6.622310546149   0.022109482095
  11 B    -10.122392670346   3.082665129926   0.111428582790
  12 C     -5.512817160440   3.164805120940   0.041139620678
  13 B     -7.758364900655   7.191460686004   0.110390208953
  14 B      4.685097072775   2.673363253612  -0.050752324073
  15 B      0.031318780944  -5.413243819884  -0.102374939314
  16 B      2.509687972623  -1.456676368291  -0.038585522769
  17 B      4.788725775394  -5.559627269120  -0.088756260426
  18 B      7.200730684042  -1.368281741740  -0.057503778908
  19 N     -6.975080785857  -6.315011151098  -0.105025572374
  20 N      1.951091536573   9.188646923160  -0.005658719948
  21 N     -9.463973162948  -2.405373053635  -0.006265673205
  22 N     -0.496500671185   5.034817450048  -0.009980812340
  23 N    -12.266381788853   1.461711421771   0.118182870209
  24 N     -7.433659626418   9.859732519500   0.132263409917
  25 N     -4.609726339396  -2.114020872643  -0.045401822669
  26 N     -2.681061882236   9.379489648464   0.044372552865
  27 N      4.404916376421   5.336665294961  -0.073998003687
  28 N     -2.413206508144  -6.505470299956  -0.148398897790
  29 N     -7.666176820528   1.847186287916   0.053819850514
  30 N     -5.456323916299   5.688792881239   0.049731219281
  31 N    -10.096940846400   5.802606224393   0.149972768637
  32 N      2.379315985739   1.245928132647  -0.037949815280
  33 N      2.380744329171  -6.801318037609  -0.110077120852
  34 N      7.064705401036   1.337503965665  -0.039486687481
  35 N      0.108103928116  -2.702456234458  -0.057195675920
  36 N      4.876061269238  -2.820369335464  -0.037164795072
  37 H     -8.904995123852  11.039791007812   0.189773728471
  38 H    -11.733741030883   6.744509713434   0.202426788814
  39 H    -14.026379282083   2.140522655266   0.165021559490
  40 H    -13.768188275970  -2.543411476245   0.053032952947
  41 H    -11.245843696327  -6.375294886641  -0.052898831916
  42 H     -6.891830174211  -8.201254634437  -0.145047206040
  43 H     -2.632800029969  -8.380326388548  -0.193160859905
  44 H      2.368528127909  -8.690070238751  -0.171347871310
  45 H      6.693269858197  -6.771295773617  -0.125950322323
  46 H      9.205706570308  -2.406561702738  -0.075590464730
  47 H      8.692947258602   2.296938769862  -0.061403555999
  48 H      5.917291997544   6.467244035180  -0.085753191718
  49 H      3.624591083317  10.063874520389  -0.004042053288
  50 H     -0.139233376996  12.911703015894   0.099839283284
  51 H     -4.723020318499  13.169408513111   0.155615934474


******** <class 'pyscf.scf.hf.as_scanner.<locals>.SCF_Scanner'> flags ********
method = SCF_Scanner-RHF
initial guess = minao
damping factor = 0
level shift factor = 0
DIIS = <class 'pyscf.scf.diis.CDIIS'>
DIIS start cycle = 1
DIIS space = 8
SCF tol = 1e-09
SCF gradient tol = None
max. SCF cycles = 50
direct_scf = False
chkfile to save SCF result = /tmp/tmp3jycwfgm
max_memory 24000 MB (current use 1100 MB)
Set gradient conv threshold to 3.16228e-05
init E= -236.677761599829
  HOMO = -0.280226292619831  LUMO = 0.101801485340595
cycle= 1 E= -236.681189861599  delta_E= -0.00343  |g|= 0.0215  |ddm|= 0.132
  HOMO = -0.279361386817323  LUMO = 0.102635885944358
cycle= 2 E= -236.681466211859  delta_E= -0.000276  |g|= 0.00748  |ddm|= 0.0333
  HOMO = -0.279571030640643  LUMO = 0.102513484832579
cycle= 3 E= -236.681513318915  delta_E= -4.71e-05  |g|= 0.00173  |ddm|= 0.0196
  HOMO = -0.27949339670566  LUMO = 0.102564102309816
cycle= 4 E= -236.681515902418  delta_E= -2.58e-06  |g|= 0.000962  |ddm|= 0.00402
  HOMO = -0.27947560287254  LUMO = 0.102570682417941
cycle= 5 E= -236.681517184219  delta_E= -1.28e-06  |g|= 0.000394  |ddm|= 0.00378
  HOMO = -0.279514475534562  LUMO = 0.102551634824489
cycle= 6 E= -236.681517496991  delta_E= -3.13e-07  |g|= 0.000176  |ddm|= 0.00218
  HOMO = -0.279498324068328  LUMO = 0.102558597644981
cycle= 7 E= -236.681517548629  delta_E= -5.16e-08  |g|= 6.69e-05  |ddm|= 0.000905
  HOMO = -0.279493231012573  LUMO = 0.102561306660468
cycle= 8 E= -236.681517556217  delta_E= -7.59e-09  |g|= 1.66e-05  |ddm|= 0.000405
  HOMO = -0.27949835639756  LUMO = 0.102559086126532
cycle= 9 E= -236.681517556534  delta_E= -3.18e-10  |g|= 5.92e-06  |ddm|= 7.21e-05
  HOMO = -0.279496777835179  LUMO = 0.102559588113819
Extra cycle  E= -236.681517556566  delta_E= -3.21e-11  |g|= 3.24e-06  |ddm|= 1.53e-05
converged SCF energy = -236.681517556566


******** <class 'pyscf.grad.rhf.as_scanner.<locals>.SCF_GradScanner'> for <class 'pyscf.scf.hf.as_scanner.<locals>.SCF_Scanner'> ********
max_memory 24000 MB (current use 18559 MB)
--------------- SCF_Scanner gradients ---------------
         x                y                z
0 B     0.0007860882    -0.0004880541    -0.0010706526
1 B     0.0008454698    -0.0003012916    -0.0000714120
2 B     0.0009655757    -0.0005844092    -0.0003096262
3 B     0.0009853195     0.0006105761     0.0008254737
4 B     0.0008330377    -0.0008807624     0.0006963543
5 B     0.0008207882    -0.0004753933     0.0012015833
6 B     0.0008356594    -0.0004430619    -0.0008086541
7 B     0.0006779819    -0.0004368337     0.0003636559
8 B     0.0009360882    -0.0005249072    -0.0005179863
9 B     0.0009602356    -0.0004435417    -0.0001264228
10 B     0.0007965218    -0.0005549917     0.0002759869
11 C     0.0013689835    -0.0007916630     0.0006370402
12 B     0.0008857298    -0.0004520707     0.0001908311
13 B     0.0007997046    -0.0004952006    -0.0001746762
14 B     0.0009292764    -0.0006851822     0.0003191108
15 B     0.0009758098    -0.0003091456    -0.0000583497
16 B     0.0010544760    -0.0005259270    -0.0002035466
17 B     0.0008333827    -0.0005201218    -0.0017442278
18 N     0.0009988883    -0.0004539525     0.0014692578
19 N     0.0009359656    -0.0006399044    -0.0003322963
20 N     0.0008010903    -0.0005252406     0.0004361938
21 N     0.0005782367    -0.0004582695     0.0002882717
22 N     0.0009175681    -0.0003463531    -0.0000657802
23 N     0.0008178463    -0.0005156541    -0.0015638086
24 N     0.0010093876    -0.0004868373     0.0002150786
25 N     0.0009459601    -0.0003411035    -0.0020265222
26 N     0.0008972954    -0.0006896736    -0.0011279930
27 N     0.0007999477    -0.0003424961    -0.0003707810
28 N     0.0007885506    -0.0005113013     0.0001329426
29 N     0.0007445247    -0.0003759471    -0.0010458337
30 N     0.0009615998    -0.0005538911     0.0000349938
31 N     0.0005086967    -0.0007282561    -0.0011640012
32 N     0.0007494378    -0.0007246619     0.0014342681
33 N     0.0007031804    -0.0004806354     0.0024408931
34 N     0.0006094278    -0.0006520525    -0.0011215118
35 N     0.0007671235    -0.0006774776     0.0026602187
36 H     0.0008649110    -0.0004620295     0.0002414982
37 H     0.0008319117    -0.0004620338     0.0001399523
38 H     0.0008278508    -0.0005398217     0.0001258979
39 H     0.0007519041    -0.0005208989     0.0000327004
40 H     0.0008285713    -0.0004879466     0.0003962678
41 H     0.0008391547    -0.0004718901    -0.0001722737
42 H     0.0008554209    -0.0004465526    -0.0001687721
43 H     0.0008664942    -0.0003209142    -0.0005014132
44 H     0.0007972512    -0.0004785737    -0.0002427914
45 H     0.0008715686    -0.0005237420     0.0002200777
46 H     0.0008179727    -0.0005295246    -0.0002740501
47 H     0.0008150016    -0.0004521301     0.0000377948
48 H     0.0008426547    -0.0004673026     0.0000883896
49 H     0.0008850732    -0.0005020941     0.0001840971
50 H     0.0008487923    -0.0004741599    -0.0001450683
----------------------------------------------
3 Energy: -236.681517557
3 Hessian update information:
3 * Change: RMS: 7.91e-05, max: 0.000878
3 Trust update: Fletcher's parameter: 0.502
3 Linear interpolation:
3 * Energies: -236.68152, -236.68141
3 * Derivatives: -0.00035, 0.000778
3 * Quartic interpolation was performed: t = 0.45
3 * Interpolated energy: -236.6816
3 Minimization on sphere was performed:
3 * Trust radius: 0.3
3 * Number of negative eigenvalues: 0
3 * Lowest eigenvalue: 0.00492
3 * lambda: -0.00186
3 Quadratic step: RMS: 0.0161, max: 0.0599
3 * Predicted energy change: -0.000439
3 Total step: RMS: 0.0152, max: 0.0565
3 Perfect transformation to cartesians in 4 iterations
3 * RMS(dcart): 5.8e-07, RMS(dq): 5.04e-07
3 Convergence criteria:
3 * Gradient RMS: 0.00077 > 0.0003 => no
3 * Gradient maximum: 0.00266 > 0.00045 => no
3 * Minimization on sphere: Minimization on sphere => no
New geometry (unit Bohr)
   1 B     -9.365911031529  -5.139481124030  -0.080360817646
   2 B      1.939707784578   6.466998708709   0.017319630469
   3 B    -11.944529559562  -1.227907876565  -0.026350549828
   4 B     -0.245685419552   2.164648172929   0.026501946410
   5 B     -2.007317764506  -0.891117448118  -0.011825034081
   6 B     -4.940331277245  10.927361566633   0.191281464069
   7 B     -4.630527687302  -4.939772707379  -0.037584659245
   8 B     -0.265154918431  10.661732610403   0.080687895612
   9 B     -7.149656024885  -0.902399021819   0.005163423330
  10 B     -2.815950042450   6.616111305598   0.141344070310
  11 B    -10.126662548987   3.085125139541   0.057414770314
  12 C     -5.518281806628   3.164958233245   0.077952175445
  13 B     -7.759488090594   7.190580255580   0.177931664262
  14 B      4.688596665024   2.674416499297  -0.095354585884
  15 B      0.032338008016  -5.411782710864  -0.032621813364
  16 B      2.512286055121  -1.456324784872  -0.052623272885
  17 B      4.789958335553  -5.557674299024  -0.112068672016
  18 B      7.203024133693  -1.366009471747  -0.175653836979
  19 N     -6.975731187530  -6.314102168914  -0.098391051847
  20 N      1.950073774007   9.185399753368   0.005123357570
  21 N     -9.465955230656  -2.403649758940  -0.031194596598
  22 N     -0.494127483097   5.029480923525   0.070296014804
  23 N    -12.270582928409   1.464490840280   0.018440088851
  24 N     -7.432555175178   9.858101710064   0.220588418377
  25 N     -4.611224429983  -2.113368596805  -0.011684310604
  26 N     -2.679782043438   9.373396988643   0.152340044223
  27 N      4.406577405548   5.337332786654  -0.068962876225
  28 N     -2.412481677096  -6.505322800994  -0.050326204227
  29 N     -7.670899902255   1.848119820438   0.039748962047
  30 N     -5.457283092877   5.686825081229   0.152362872347
  31 N    -10.099858850488   5.804654777477   0.123413005217
  32 N      2.384256730799   1.245948318851  -0.031375238147
  33 N      2.382022348889  -6.799083414485  -0.071755520774
  34 N      7.067639427978   1.339871952088  -0.177857296476
  35 N      0.110402929849  -2.701238714135   0.004852575784
  36 N      4.878773552949  -2.818046160071  -0.111112703750
  37 H     -8.903573706410  11.039863651486   0.210210499261
  38 H    -11.736477312338   6.748197036900   0.125974436710
  39 H    -14.030892129652   2.144075307784   0.019086197559
  40 H    -13.770016094732  -2.540964939428  -0.065029336248
  41 H    -11.246395357436  -6.373354115965  -0.123595154594
  42 H     -6.892499236897  -8.200692385699  -0.118086309323
  43 H     -2.631412114174  -8.380700583810  -0.075045861062
  44 H      2.369802508062  -8.689108038696  -0.062141983708
  45 H      6.694474661241  -6.769871737619  -0.085685692796
  46 H      9.208155263651  -2.403994200254  -0.179789218839
  47 H      8.695675010784   2.299696182627  -0.205926997171
  48 H      5.916967912222   6.469449257376  -0.121244905918
  49 H      3.622020463929  10.061501278958  -0.055487798552
  50 H     -0.143762967017  12.907432695885   0.028919857246
  51 H     -4.720269334770  13.165158609231   0.153614993769


******** <class 'pyscf.scf.hf.as_scanner.<locals>.SCF_Scanner'> flags ********
method = SCF_Scanner-RHF
initial guess = minao
damping factor = 0
level shift factor = 0
DIIS = <class 'pyscf.scf.diis.CDIIS'>
DIIS start cycle = 1
DIIS space = 8
SCF tol = 1e-09
SCF gradient tol = None
max. SCF cycles = 50
direct_scf = False
chkfile to save SCF result = /tmp/tmp3jycwfgm
max_memory 24000 MB (current use 1076 MB)
Set gradient conv threshold to 3.16228e-05
init E= -236.673045382925
  HOMO = -0.281200545756377  LUMO = 0.101050253733486
cycle= 1 E= -236.680489121832  delta_E= -0.00744  |g|= 0.025  |ddm|= 0.164
  HOMO = -0.27911289925778  LUMO = 0.102755430792038
cycle= 2 E= -236.680855770183  delta_E= -0.000367  |g|= 0.00861  |ddm|= 0.0401
  HOMO = -0.279586291932147  LUMO = 0.102505270745874
cycle= 3 E= -236.680912648849  delta_E= -5.69e-05  |g|= 0.00192  |ddm|= 0.0216
  HOMO = -0.279391720298942  LUMO = 0.102599038244416
cycle= 4 E= -236.680914358696  delta_E= -1.71e-06  |g|= 0.000727  |ddm|= 0.00312
  HOMO = -0.279359278147624  LUMO = 0.102617680673196
cycle= 5 E= -236.680914718226  delta_E= -3.6e-07  |g|= 0.000182  |ddm|= 0.0018
  HOMO = -0.27939614153254  LUMO = 0.102600739593436
cycle= 6 E= -236.680914739884  delta_E= -2.17e-08  |g|= 7.04e-05  |ddm|= 0.00046
  HOMO = -0.27939130560194  LUMO = 0.102601920566654
cycle= 7 E= -236.680914743104  delta_E= -3.22e-09  |g|= 2.47e-05  |ddm|= 0.000175
  HOMO = -0.279387639638916  LUMO = 0.1026037402031
cycle= 8 E= -236.680914743834  delta_E= -7.3e-10  |g|= 1.16e-05  |ddm|= 8.64e-05
  HOMO = -0.279389774969268  LUMO = 0.102602896684088
Extra cycle  E= -236.680914743985  delta_E= -1.51e-10  |g|= 7.45e-06  |ddm|= 3.15e-05
converged SCF energy = -236.680914743985


******** <class 'pyscf.grad.rhf.as_scanner.<locals>.SCF_GradScanner'> for <class 'pyscf.scf.hf.as_scanner.<locals>.SCF_Scanner'> ********
max_memory 24000 MB (current use 18557 MB)
--------------- SCF_Scanner gradients ---------------
         x                y                z
0 B     0.0008843578    -0.0005273309     0.0012650440
1 B     0.0009598275    -0.0004355348     0.0017550309
2 B     0.0009291013    -0.0005185356     0.0002413868
3 B     0.0011495534    -0.0004833125     0.0017523272
4 B     0.0006259872    -0.0012626270    -0.0042822483
5 B     0.0008210482    -0.0004845190     0.0015685479
6 B     0.0008527402    -0.0004635251     0.0024230505
7 B     0.0008322948    -0.0004788736     0.0025867554
8 B     0.0009939050    -0.0006184421     0.0018079412
9 B     0.0009051360    -0.0006461406     0.0017940990
10 B     0.0008796890    -0.0004133207    -0.0006788009
11 C     0.0000262436    -0.0000475775    -0.0008653981
12 B     0.0007853111    -0.0006260915     0.0006622486
13 B     0.0008679621    -0.0005047432    -0.0003273171
14 B     0.0008727825    -0.0004253475     0.0002511934
15 B     0.0006859964    -0.0005741586    -0.0017109883
16 B     0.0008419895    -0.0004666306    -0.0035116372
17 B     0.0008309427    -0.0005176956    -0.0025961365
18 N     0.0007845935    -0.0004400531    -0.0031100455
19 N     0.0007988171    -0.0006485317    -0.0024149527
20 N     0.0007998051    -0.0002911455    -0.0009466505
21 N     0.0009643021    -0.0007750452    -0.0012036038
22 N     0.0008961998    -0.0004582608     0.0002730856
23 N     0.0009963724    -0.0005633612     0.0008766290
24 N     0.0004950210    -0.0003418163    -0.0001239833
25 N     0.0008489532    -0.0005722042    -0.0018653240
26 N     0.0008057988    -0.0004399070    -0.0003227876
27 N     0.0008955458    -0.0005687785    -0.0017037075
28 N     0.0008498294    -0.0006271541    -0.0014632858
29 N     0.0010296663    -0.0004702214     0.0006423640
30 N     0.0007758453    -0.0004214741    -0.0000489221
31 N     0.0012346805    -0.0002566859     0.0010333430
32 N     0.0008042969    -0.0004062982     0.0004730050
33 N     0.0008718894    -0.0004435546    -0.0002558036
34 N     0.0009882409    -0.0002734177     0.0049704395
35 N     0.0009856715    -0.0003629255     0.0029172155
36 H     0.0008536523    -0.0005007271    -0.0005146319
37 H     0.0008429551    -0.0004947314    -0.0001786109
38 H     0.0008559453    -0.0004782920    -0.0000895784
39 H     0.0008142651    -0.0004883806    -0.0001281644
40 H     0.0008479049    -0.0004673105    -0.0003758652
41 H     0.0008604250    -0.0004817902     0.0003572356
42 H     0.0008444259    -0.0004823214     0.0001671968
43 H     0.0008358555    -0.0004885238     0.0001825452
44 H     0.0008150776    -0.0004373519     0.0015323045
45 H     0.0008770770    -0.0004602978     0.0011472402
46 H     0.0008837534    -0.0004799181     0.0001482578
47 H     0.0008653286    -0.0004765430    -0.0001889108
48 H     0.0008574147    -0.0004671462    -0.0000265044
49 H     0.0008176540    -0.0005175709    -0.0012228695
50 H     0.0008505868    -0.0004970049    -0.0009766197
----------------------------------------------
4 Energy: -236.680914744
4 Hessian update information:
4 * Change: RMS: 9.45e-05, max: 0.00101
4 Trust update: Fletcher's parameter: -1.37
4 Linear interpolation:
4 * Energies: -236.68091, -236.68152
4 * Derivatives: -0.00106, 0.000813
4 * Quartic interpolation was performed: t = 0.831
4 * Interpolated energy: -236.68158
4 Minimization on sphere was performed:
4 * Trust radius: 0.075
4 * Number of negative eigenvalues: 0
4 * Lowest eigenvalue: 0.00443
4 * lambda: -0.0234
4 Quadratic step: RMS: 0.00403, max: 0.0118
4 * Predicted energy change: -0.000171
4 Total step: RMS: 0.0105, max: 0.0371
4 Perfect transformation to cartesians in 4 iterations
4 * RMS(dcart): 1.73e-07, RMS(dq): 1.74e-07
4 Convergence criteria:
4 * Gradient RMS: 0.00112 > 0.0003 => no
4 * Gradient maximum: 0.00497 > 0.00045 => no
4 * Minimization on sphere: Minimization on sphere => no
New geometry (unit Bohr)
   1 B     -9.366072066002  -5.140840412104  -0.034922538371
   2 B      1.939678480978   6.467949005760   0.004241350352
   3 B    -11.944418700106  -1.229400964062   0.030747376863
   4 B     -0.246746265121   2.166014255090  -0.007294180574
   5 B     -2.007706484290  -0.890227057354  -0.026226178286
   6 B     -4.941197595262  10.929003899165   0.130637945866
   7 B     -4.630708709748  -4.939991077797  -0.063698922997
   8 B     -0.264448089646  10.662968088443   0.082534651803
   9 B     -7.149642145232  -0.902850503920   0.005024072513
  10 B     -2.816903972912   6.618184424605   0.060000737514
  11 B    -10.126331965319   3.084203441095   0.074210669671
  12 C     -5.517342488340   3.164980751771   0.046270175179
  13 B     -7.759890397911   7.191587418376   0.106737933417
  14 B      4.688889339371   2.674316719967  -0.060172602377
  15 B      0.031634691146  -5.411712116332  -0.089887645522
  16 B      2.511945919751  -1.456098868560  -0.061659108723
  17 B      4.789480682885  -5.557785011231  -0.127323398928
  18 B      7.203681801128  -1.366491757523  -0.116342845230
  19 N     -6.976068517732  -6.315316122283  -0.065889281588
  20 N      1.951434911436   9.186318256142   0.035660334841
  21 N     -9.465905157001  -2.404814991423   0.000195587498
  22 N     -0.494919424230   5.031156124295   0.020043651150
  23 N    -12.270270975099   1.463069785680   0.068342277614
  24 N     -7.433556972286   9.859479302873   0.135943085777
  25 N     -4.611180397893  -2.113628849589  -0.027346987991
  26 N     -2.680530902057   9.375277815339   0.088629969207
  27 N      4.407119257949   5.337396278081  -0.043605978829
  28 N     -2.413015328384  -6.505401736255  -0.098817705939
  29 N     -7.670233778210   1.847812772482   0.042447300092
  30 N     -5.457710667827   5.687994252632   0.071000257296
  31 N    -10.099976591123   5.804303766864   0.108348369388
  32 N      2.383339094802   1.246153720318  -0.040354502727
  33 N      2.381325507863  -6.799176334646  -0.121390124710
  34 N      7.068859257288   1.339270312064  -0.093476017707
  35 N      0.109483424682  -2.701036367386  -0.051860461641
  36 N      4.878653467761  -2.818393135936  -0.093453538805
  37 H     -8.904685647322  11.040832591213   0.163066695316
  38 H    -11.736779871589   6.747139992991   0.134520529683
  39 H    -14.030587752050   2.142276144451   0.090289109289
  40 H    -13.770005257137  -2.542902863510   0.023782686665
  41 H    -11.246638856920  -6.375369068199  -0.034319781876
  42 H     -6.892746169037  -8.201872836915  -0.089035397693
  43 H     -2.632047423554  -8.380753708492  -0.126016773718
  44 H      2.368742613107  -8.689038259621  -0.151338076477
  45 H      6.693716847565  -6.770433991786  -0.152784579563
  46 H      9.208372827297  -2.405043724367  -0.141468597793
  47 H      8.697129663805   2.298942942228  -0.109913043015
  48 H      5.918715153076   6.469009003842  -0.056543375723
  49 H      3.624654207836  10.062033325956   0.029150914702
  50 H     -0.140566630324  12.908934950609   0.110963666649
  51 H     -4.720545404273  13.166932821525   0.153784363659


******** <class 'pyscf.scf.hf.as_scanner.<locals>.SCF_Scanner'> flags ********
method = SCF_Scanner-RHF
initial guess = minao
damping factor = 0
level shift factor = 0
DIIS = <class 'pyscf.scf.diis.CDIIS'>
DIIS start cycle = 1
DIIS space = 8
SCF tol = 1e-09
SCF gradient tol = None
max. SCF cycles = 50
direct_scf = False
chkfile to save SCF result = /tmp/tmp3jycwfgm
max_memory 24000 MB (current use 1098 MB)
Set gradient conv threshold to 3.16228e-05
init E= -236.678054274318
  HOMO = -0.280157146393025  LUMO = 0.101914022063536
cycle= 1 E= -236.68116419369  delta_E= -0.00311  |g|= 0.0176  |ddm|= 0.117
  HOMO = -0.279417227968694  LUMO = 0.102635134939661
cycle= 2 E= -236.681348440815  delta_E= -0.000184  |g|= 0.00611  |ddm|= 0.0278
  HOMO = -0.279513795363721  LUMO = 0.102510917907464
cycle= 3 E= -236.681378013463  delta_E= -2.96e-05  |g|= 0.00116  |ddm|= 0.0155
  HOMO = -0.279485614548522  LUMO = 0.102564141800568
cycle= 4 E= -236.681378788148  delta_E= -7.75e-07  |g|= 0.000521  |ddm|= 0.00215
  HOMO = -0.279467968340108  LUMO = 0.102568661205502
cycle= 5 E= -236.681378974677  delta_E= -1.87e-07  |g|= 0.000133  |ddm|= 0.00127
  HOMO = -0.279483275711592  LUMO = 0.102557625680245
cycle= 6 E= -236.681378992675  delta_E= -1.8e-08  |g|= 6.19e-05  |ddm|= 0.000428
  HOMO = -0.279479556982445  LUMO = 0.102560177425219
cycle= 7 E= -236.681378997042  delta_E= -4.37e-09  |g|= 3.21e-05  |ddm|= 0.000197
  HOMO = -0.279478159227973  LUMO = 0.102561233464947
cycle= 8 E= -236.681378998881  delta_E= -1.84e-09  |g|= 1.38e-05  |ddm|= 0.000156
  HOMO = -0.279479712079059  LUMO = 0.102560276594534
cycle= 9 E= -236.681378999284  delta_E= -4.03e-10  |g|= 4.35e-06  |ddm|= 9.14e-05
  HOMO = -0.279479061490549  LUMO = 0.102560559645447
Extra cycle  E= -236.681378999301  delta_E= -1.77e-11  |g|= 2.67e-06  |ddm|= 1.12e-05
converged SCF energy = -236.681378999301


******** <class 'pyscf.grad.rhf.as_scanner.<locals>.SCF_GradScanner'> for <class 'pyscf.scf.hf.as_scanner.<locals>.SCF_Scanner'> ********
max_memory 24000 MB (current use 18560 MB)
--------------- SCF_Scanner gradients ---------------
         x                y                z
0 B     0.0008888909    -0.0004989768    -0.0001642226
1 B     0.0008996351    -0.0004625004     0.0001784988
2 B     0.0009297469    -0.0004938396    -0.0000041284
3 B     0.0010372582    -0.0003150203     0.0004506987
4 B     0.0006363704    -0.0010156100    -0.0002933149
5 B     0.0008203023    -0.0004949295     0.0004801591
6 B     0.0008612821    -0.0004601704     0.0000313227
7 B     0.0007662765    -0.0004997940     0.0003457859
8 B     0.0009511006    -0.0005297137     0.0001121230
9 B     0.0008965690    -0.0006085565     0.0002265045
10 B     0.0008390486    -0.0004764931     0.0000141106
11 C     0.0004176545    -0.0002577529     0.0000969319
12 B     0.0008226783    -0.0005816660     0.0001177044
13 B     0.0008985961    -0.0004877658    -0.0001662440
14 B     0.0008592883    -0.0004969017    -0.0000012027
15 B     0.0008182894    -0.0004834745    -0.0003642304
16 B     0.0008368543    -0.0004436617    -0.0007249493
17 B     0.0008343664    -0.0004682552    -0.0010295467
18 N     0.0007687473    -0.0004999722     0.0000468954
19 N     0.0008966714    -0.0005771807    -0.0003462367
20 N     0.0007776433    -0.0004198823     0.0000148773
21 N     0.0009307497    -0.0006679930    -0.0001475514
22 N     0.0008597285    -0.0004576230    -0.0000597187
23 N     0.0009107857    -0.0004934210    -0.0003350610
24 N     0.0006540928    -0.0004440333    -0.0001001682
25 N     0.0008716891    -0.0005349599    -0.0006803169
26 N     0.0008074492    -0.0004421687    -0.0003443526
27 N     0.0008625541    -0.0005246087    -0.0002562846
28 N     0.0009078413    -0.0004884860    -0.0001340799
29 N     0.0009072865    -0.0005215860    -0.0002345267
30 N     0.0008089703    -0.0004301917    -0.0000863653
31 N     0.0010459719    -0.0004336509    -0.0000092020
32 N     0.0008269249    -0.0004154876     0.0005708892
33 N     0.0008917694    -0.0004833140     0.0007500832
34 N     0.0008885465    -0.0003635537     0.0005904015
35 N     0.0009224296    -0.0004512920     0.0014017606
36 H     0.0008514034    -0.0004859399     0.0000055234
37 H     0.0008508462    -0.0004965271     0.0000268992
38 H     0.0008486238    -0.0004959360     0.0000322416
39 H     0.0008108532    -0.0004959842    -0.0000443336
40 H     0.0008443199    -0.0004829354     0.0000716592
41 H     0.0008549511    -0.0004916964    -0.0000105605
42 H     0.0008420238    -0.0004962432    -0.0000304600
43 H     0.0008405786    -0.0005223211    -0.0001406135
44 H     0.0008251881    -0.0004726942     0.0001963063
45 H     0.0008703015    -0.0004891650     0.0002626712
46 H     0.0008741108    -0.0004822990    -0.0000855869
47 H     0.0008555761    -0.0004749051    -0.0000327205
48 H     0.0008489249    -0.0004674607     0.0000129800
49 H     0.0008631086    -0.0004918353    -0.0000814417
50 H     0.0008621639    -0.0004806052    -0.0001554556
----------------------------------------------
5 Energy: -236.681378999
5 Hessian update information:
5 * Change: RMS: 5.89e-05, max: 0.00105
5 Trust update: Fletcher's parameter: 2.71
5 Linear interpolation:
5 * Energies: -236.68138, -236.68152
5 * Derivatives: 8.09e-05, 0.000377
5 * Cubic interpolation was performed: t = 0.821
5 * Interpolated energy: -236.68155
5 Minimization on sphere was performed:
5 * Trust radius: 0.15
5 * Number of negative eigenvalues: 0
5 * Lowest eigenvalue: 0.00495
5 * lambda: -0.00239
5 Quadratic step: RMS: 0.00805, max: 0.026
5 * Predicted energy change: -0.000215
5 Total step: RMS: 0.00399, max: 0.0153
5 Perfect transformation to cartesians in 3 iterations
5 * RMS(dcart): 3.24e-07, RMS(dq): 3.07e-07
5 Convergence criteria:
5 * Gradient RMS: 0.00061 > 0.0003 => no
5 * Gradient maximum: 0.0014 > 0.00045 => no
5 * Minimization on sphere: Minimization on sphere => no
New geometry (unit Bohr)
   1 B     -9.365139519669  -5.141491011206  -0.011393160618
   2 B      1.939345934654   6.468729725387   0.016799250587
   3 B    -11.943117233639  -1.229874710480   0.043792428036
   4 B     -0.248310499642   2.167489232541  -0.034526803505
   5 B     -2.007675467722  -0.888731979050  -0.056268784498
   6 B     -4.941947045260  10.930379734464   0.122232091795
   7 B     -4.630177835084  -4.940199235978  -0.061066258789
   8 B     -0.264217345728  10.664462370691   0.091965868282
   9 B     -7.148602688598  -0.903058448223  -0.000533030845
  10 B     -2.817035624220   6.620311664083   0.051027524886
  11 B    -10.124430458459   3.083765268569   0.067108292281
  12 C     -5.514614260930   3.164861859123   0.030594670357
  13 B     -7.759301109292   7.191816513846   0.096575109928
  14 B      4.687218956859   2.673915270712  -0.057470654754
  15 B      0.031144176908  -5.411845406051  -0.111417380271
  16 B      2.510617857241  -1.455999118480  -0.095458076834
  17 B      4.788591999846  -5.558536150222  -0.143692297992
  18 B      7.202093725845  -1.367177871572  -0.115844280571
  19 N     -6.975206464019  -6.315844670482  -0.047680442432
  20 N      1.951453281494   9.187145706530   0.057709942867
  21 N     -9.464669847648  -2.405363573551   0.010888848661
  22 N     -0.495644910163   5.032813932894   0.009882435890
  23 N    -12.268504025793   1.462694645811   0.071536075523
  24 N     -7.433960293400   9.859859276921   0.127096016957
  25 N     -4.610235908563  -2.113636357143  -0.039024907335
  26 N     -2.680707468463   9.377295233136   0.089405315136
  27 N      4.406524218812   5.336827954629  -0.015367355419
  28 N     -2.413051484350  -6.505943783585  -0.097814858128
  29 N     -7.668085265066   1.847812423992   0.031610994817
  30 N     -5.457005449230   5.688317740852   0.060688634442
  31 N    -10.098821553841   5.803796596180   0.097899052846
  32 N      2.381336035966   1.246277071345  -0.063281387206
  33 N      2.380539875336  -6.799863166156  -0.143021968474
  34 N      7.067005964108   1.338509808348  -0.088996510429
  35 N      0.108452482415  -2.700858130523  -0.088689578667
  36 N      4.877027582859  -2.818912985560  -0.125641138905
  37 H     -8.905573247954  11.040721852944   0.147743158694
  38 H    -11.735908953175   6.746218833363   0.120898186495
  39 H    -14.028712899366   2.142193491738   0.093092009109
  40 H    -13.768564440386  -2.543477906844   0.051851510352
  41 H    -11.245650990897  -6.376078747100  -0.001247751373
  42 H     -6.891730375381  -8.202497834692  -0.059333803513
  43 H     -2.632042307866  -8.381468733018  -0.108015977401
  44 H      2.367967828106  -8.689933983980  -0.149644018011
  45 H      6.693030090826  -6.771170605005  -0.155606972134
  46 H      9.206818096950  -2.405855205401  -0.127995731639
  47 H      8.695427562893   2.297914854034  -0.078508127762
  48 H      5.918787976321   6.467541080129  -0.007590516750
  49 H      3.624942871465  10.062312689196   0.061806090915
  50 H     -0.140018231898  12.910419259636   0.119082441522
  51 H     -4.722186767414  13.168377927768   0.145277889077


******** <class 'pyscf.scf.hf.as_scanner.<locals>.SCF_Scanner'> flags ********
method = SCF_Scanner-RHF
initial guess = minao
damping factor = 0
level shift factor = 0
DIIS = <class 'pyscf.scf.diis.CDIIS'>
DIIS start cycle = 1
DIIS space = 8
SCF tol = 1e-09
SCF gradient tol = None
max. SCF cycles = 50
direct_scf = False
chkfile to save SCF result = /tmp/tmp3jycwfgm
max_memory 24000 MB (current use 1101 MB)
Set gradient conv threshold to 3.16228e-05
init E= -236.681306867117
  HOMO = -0.279581275211915  LUMO = 0.102460923958574
cycle= 1 E= -236.681501613053  delta_E= -0.000195  |g|= 0.00698  |ddm|= 0.0415
  HOMO = -0.279640422227027  LUMO = 0.102493120933645
cycle= 2 E= -236.681531005455  delta_E= -2.94e-05  |g|= 0.00242  |ddm|= 0.0115
  HOMO = -0.279568719408322  LUMO = 0.102495522608037
cycle= 3 E= -236.681535764965  delta_E= -4.76e-06  |g|= 0.000453  |ddm|= 0.00651
  HOMO = -0.279618545720242  LUMO = 0.102491138422908
cycle= 4 E= -236.681535908412  delta_E= -1.43e-07  |g|= 0.000223  |ddm|= 0.00108
  HOMO = -0.279607401843236  LUMO = 0.102492069936567
cycle= 5 E= -236.681535945502  delta_E= -3.71e-08  |g|= 7.39e-05  |ddm|= 0.000578
  HOMO = -0.279602376122088  LUMO = 0.102493238680379
cycle= 6 E= -236.681535952864  delta_E= -7.36e-09  |g|= 3.64e-05  |ddm|= 0.000277
  HOMO = -0.279606095322086  LUMO = 0.102492259602684
cycle= 7 E= -236.681535954896  delta_E= -2.03e-09  |g|= 1.9e-05  |ddm|= 0.00015
  HOMO = -0.279605322797123  LUMO = 0.102492512269051
cycle= 8 E= -236.681535955569  delta_E= -6.73e-10  |g|= 6.64e-06  |ddm|= 0.000106
  HOMO = -0.2796049833317  LUMO = 0.102492602917069
Extra cycle  E= -236.681535955619  delta_E= -4.96e-11  |g|= 4.25e-06  |ddm|= 1.82e-05
converged SCF energy = -236.681535955619


******** <class 'pyscf.grad.rhf.as_scanner.<locals>.SCF_GradScanner'> for <class 'pyscf.scf.hf.as_scanner.<locals>.SCF_Scanner'> ********
max_memory 24000 MB (current use 18560 MB)
--------------- SCF_Scanner gradients ---------------
         x                y                z
0 B     0.0008574635    -0.0005004842     0.0001364424
1 B     0.0008766030    -0.0004357957     0.0000207902
2 B     0.0008916707    -0.0004908538    -0.0002378026
3 B     0.0009055063    -0.0001569099    -0.0002826391
4 B     0.0007609795    -0.0006359028    -0.0005712509
5 B     0.0008119270    -0.0005018009    -0.0000453533
6 B     0.0008304409    -0.0004809250     0.0001770939
7 B     0.0008199947    -0.0004928044     0.0001531103
8 B     0.0008822940    -0.0004765687     0.0000207857
9 B     0.0008765816    -0.0004840933    -0.0001503756
10 B     0.0008176294    -0.0005119489    -0.0001373158
11 C     0.0011147072    -0.0006237376    -0.0000211215
12 B     0.0008529220    -0.0004367671    -0.0000571626
13 B     0.0008672879    -0.0004794983    -0.0000377280
14 B     0.0008795861    -0.0005214092     0.0000854044
15 B     0.0008682429    -0.0004414498     0.0000604227
16 B     0.0008685427    -0.0004889701     0.0001030649
17 B     0.0008264314    -0.0004774572     0.0001915387
18 N     0.0008588023    -0.0005056254    -0.0003774518
19 N     0.0008493358    -0.0004773364    -0.0001251690
20 N     0.0008245230    -0.0005301501     0.0001240430
21 N     0.0008050492    -0.0005273191    -0.0000086888
22 N     0.0008341820    -0.0004576759     0.0002436050
23 N     0.0008223508    -0.0004581858     0.0002286889
24 N     0.0009197143    -0.0005032863     0.0000672060
25 N     0.0008924556    -0.0004227083     0.0001670066
26 N     0.0008758953    -0.0005514066     0.0000954629
27 N     0.0008416690    -0.0004734297    -0.0002569194
28 N     0.0008275500    -0.0004307912    -0.0000692471
29 N     0.0007623097    -0.0005111025     0.0001713156
30 N     0.0008744345    -0.0005058833     0.0001032499
31 N     0.0008025553    -0.0005728897     0.0001956075
32 N     0.0008129114    -0.0004724172    -0.0006224730
33 N     0.0008480361    -0.0004892050    -0.0005292195
34 N     0.0007738089    -0.0004226367     0.0003931138
35 N     0.0008392271    -0.0005370504    -0.0006177514
36 H     0.0008578188    -0.0004808609    -0.0000826887
37 H     0.0008596679    -0.0004877749    -0.0000581651
38 H     0.0008434188    -0.0005050711    -0.0000535894
39 H     0.0008283986    -0.0005000880     0.0000654366
40 H     0.0008444670    -0.0004917531    -0.0000536302
41 H     0.0008437078    -0.0004967189     0.0000809742
42 H     0.0008420886    -0.0005056076     0.0000683031
43 H     0.0008606163    -0.0005229963     0.0001357014
44 H     0.0008304722    -0.0004934289     0.0000886565
45 H     0.0008534936    -0.0005005900     0.0000588576
46 H     0.0008469675    -0.0004973215     0.0000907607
47 H     0.0008360024    -0.0004905627    -0.0000020656
48 H     0.0008368485    -0.0004836264     0.0000336335
49 H     0.0008625214    -0.0004956587    -0.0001055458
50 H     0.0008541326    -0.0004905986    -0.0000483519
----------------------------------------------
6 Energy: -236.681535956
6 Hessian update information:
6 * Change: RMS: 3.23e-05, max: 0.000544
6 Trust update: Fletcher's parameter: 0.729
6 Linear interpolation:
6 * Energies: -236.68154, -236.68152
6 * Derivatives: -8.35e-05, 0.000496
6 * Cubic interpolation was performed: t = 0.608
6 * Interpolated energy: -236.6816
6 Pure RFO step was performed:
6 * Trust radius: 0.15
6 * Number of negative eigenvalues: 0
6 * Lowest eigenvalue: 0.00496
6 * lambda: -0.000171
6 Quadratic step: RMS: 0.00514, max: 0.0232
6 * Predicted energy change: -8.62e-05
6 Total step: RMS: 0.00457, max: 0.0209
6 Perfect transformation to cartesians in 3 iterations
6 * RMS(dcart): 9.53e-07, RMS(dq): 8.28e-07
6 Convergence criteria:
6 * Gradient RMS: 0.000582 > 0.0003 => no
6 * Gradient maximum: 0.00111 > 0.00045 => no
6 * Step RMS: 0.00457 > 0.0012 => no
6 * Step maximum: 0.0209 > 0.0018 => no
New geometry (unit Bohr)
   1 B     -9.365384540311  -5.140867991490  -0.027400504213
   2 B      1.939353828279   6.467582896393   0.033386393890
   3 B    -11.943966926668  -1.229264778936   0.016222131009
   4 B     -0.247308567866   2.165502401614   0.023704807442
   5 B     -2.007043323151  -0.889696128800   0.004453513582
   6 B     -4.941394723832  10.929634641542   0.124585898075
   7 B     -4.629916672946  -4.940281947721  -0.030130063410
   8 B     -0.264183817092  10.663421554835   0.085374960369
   9 B     -7.149116393732  -0.902946084745   0.018338374918
  10 B     -2.817009507778   6.618861418278   0.081267157574
  11 B    -10.125611113216   3.084274273997   0.059689773237
  12 C     -5.516439425839   3.165015987490   0.056208741427
  13 B     -7.759762930308   7.191836846774   0.102033056681
  14 B      4.687954289950   2.673901495072  -0.045624903636
  15 B      0.031775565677  -5.412104775771  -0.076276067978
  16 B      2.511577253220  -1.456489243590  -0.062629419191
  17 B      4.788913602039  -5.557904294165  -0.159740509717
  18 B      7.202504564579  -1.366301790693  -0.149490618714
  19 N     -6.975282620909  -6.315407460024  -0.039990950158
  20 N      1.951419122124   9.186184544190   0.053358107895
  21 N     -9.465286846412  -2.404848847557   0.001548151900
  22 N     -0.495282675923   5.031184311092   0.051573982501
  23 N    -12.269610192471   1.463281667005   0.039369264833
  24 N     -7.433695001954   9.859762758035   0.128393117737
  25 N     -4.610318707595  -2.113762363505   0.002408246583
  26 N     -2.680531645247   9.375981337473   0.098340609045
  27 N      4.406680723162   5.336813891200  -0.012387907819
  28 N     -2.412543483832  -6.506012203099  -0.060924905949
  29 N     -7.669420058020   1.847794818563   0.045875410787
  30 N     -5.457458200109   5.688184204858   0.081727563760
  31 N    -10.099657326668   5.804355909880   0.089826005963
  32 N      2.382462039315   1.245703242765  -0.027678652351
  33 N      2.381261734174  -6.799580156889  -0.126426175033
  34 N      7.067589880940   1.339139297003  -0.104646985094
  35 N      0.109409484555  -2.701369078770  -0.045243990545
  36 N      4.877911879604  -2.818574285007  -0.118839538842
  37 H     -8.905105239442  11.040940652576   0.145068086986
  38 H    -11.736676739855   6.747115672347   0.101756109435
  39 H    -14.029840103299   2.143043843251   0.045003927263
  40 H    -13.769242000698  -2.542768384704  -0.005020177987
  41 H    -11.245863718892  -6.375428391379  -0.040830873303
  42 H     -6.891927389014  -8.201923016987  -0.065311013248
  43 H     -2.631646760378  -8.381333120566  -0.088000744508
  44 H      2.368433386202  -8.689347786922  -0.158939627775
  45 H      6.692869954210  -6.769935652209  -0.220851441477
  46 H      9.206664752930  -2.404186363104  -0.211859392326
  47 H      8.695511695507   2.299163956361  -0.129551441629
  48 H      5.918489569148   6.468086418750  -0.028374243142
  49 H      3.624866626825  10.061335933028   0.037650545948
  50 H     -0.140438011617  12.909546553450   0.099305155201
  51 H     -4.721208741576  13.167646023372   0.141133119203


******** <class 'pyscf.scf.hf.as_scanner.<locals>.SCF_Scanner'> flags ********
method = SCF_Scanner-RHF
initial guess = minao
damping factor = 0
level shift factor = 0
DIIS = <class 'pyscf.scf.diis.CDIIS'>
DIIS start cycle = 1
DIIS space = 8
SCF tol = 1e-09
SCF gradient tol = None
max. SCF cycles = 50
direct_scf = False
chkfile to save SCF result = /tmp/tmp3jycwfgm
max_memory 24000 MB (current use 1103 MB)
Set gradient conv threshold to 3.16228e-05
init E= -236.680100534831
  HOMO = -0.27984011922768  LUMO = 0.102225992080477
cycle= 1 E= -236.681328567969  delta_E= -0.00123  |g|= 0.0107  |ddm|= 0.0602
  HOMO = -0.279516038238385  LUMO = 0.102519313830445
cycle= 2 E= -236.681401057942  delta_E= -7.25e-05  |g|= 0.00385  |ddm|= 0.0171
  HOMO = -0.279595662472735  LUMO = 0.102478752649146
cycle= 3 E= -236.681413913436  delta_E= -1.29e-05  |g|= 0.000727  |ddm|= 0.00999
  HOMO = -0.279549323968692  LUMO = 0.102501714488849
cycle= 4 E= -236.681414339358  delta_E= -4.26e-07  |g|= 0.000357  |ddm|= 0.00178
  HOMO = -0.279556867408489  LUMO = 0.102497577270285
cycle= 5 E= -236.681414435053  delta_E= -9.57e-08  |g|= 0.000118  |ddm|= 0.00091
  HOMO = -0.279562581546041  LUMO = 0.102495636504029
cycle= 6 E= -236.681414451251  delta_E= -1.62e-08  |g|= 5.21e-05  |ddm|= 0.000407
  HOMO = -0.27956002008415  LUMO = 0.102496200576045
cycle= 7 E= -236.681414455249  delta_E= -4e-09  |g|= 2.65e-05  |ddm|= 0.00021
  HOMO = -0.279559993298985  LUMO = 0.102496363886375
cycle= 8 E= -236.681414456457  delta_E= -1.21e-09  |g|= 1.12e-05  |ddm|= 0.000129
  HOMO = -0.279560778367308  LUMO = 0.102496092990211
cycle= 9 E= -236.6814144567  delta_E= -2.43e-10  |g|= 3.52e-06  |ddm|= 6.81e-05
  HOMO = -0.279560250960922  LUMO = 0.1024962367281
Extra cycle  E= -236.681414456717  delta_E= -1.64e-11  |g|= 2.19e-06  |ddm|= 9.56e-06
converged SCF energy = -236.681414456717


******** <class 'pyscf.grad.rhf.as_scanner.<locals>.SCF_GradScanner'> for <class 'pyscf.scf.hf.as_scanner.<locals>.SCF_Scanner'> ********
max_memory 24000 MB (current use 18562 MB)
--------------- SCF_Scanner gradients ---------------
         x                y                z
0 B     0.0008795300    -0.0004867180    -0.0000544538
1 B     0.0008946627    -0.0005029709     0.0001856167
2 B     0.0008554916    -0.0004854928     0.0008378084
3 B     0.0009497651    -0.0004528118     0.0006684124
4 B     0.0007811423    -0.0006816183     0.0004669355
5 B     0.0008434909    -0.0004971423     0.0000151154
6 B     0.0008748381    -0.0005172461     0.0001283875
7 B     0.0008412049    -0.0005099398    -0.0000843242
8 B     0.0008599623    -0.0004910124     0.0001932249
9 B     0.0008404090    -0.0005186462     0.0005233238
10 B     0.0008486530    -0.0004634998     0.0001022063
11 C     0.0005864898    -0.0003480260    -0.0000639904
12 B     0.0008218583    -0.0005327944     0.0000659672
13 B     0.0008794978    -0.0004739361     0.0002762417
14 B     0.0008346410    -0.0005085011     0.0000144352
15 B     0.0008325603    -0.0004995412    -0.0000682250
16 B     0.0008092014    -0.0004671437    -0.0003140958
17 B     0.0008342847    -0.0004757299    -0.0002872110
18 N     0.0008098242    -0.0004801348     0.0001320516
19 N     0.0008536642    -0.0005212085     0.0000220827
20 N     0.0008220999    -0.0004656068    -0.0006137141
21 N     0.0008762343    -0.0005425925    -0.0001109104
22 N     0.0008712872    -0.0005037067    -0.0006260064
23 N     0.0008891896    -0.0004973908     0.0000603720
24 N     0.0007782502    -0.0004861774    -0.0001383846
25 N     0.0008459639    -0.0005062018    -0.0002896254
26 N     0.0007984431    -0.0004419531    -0.0001147033
27 N     0.0008697411    -0.0004889030     0.0002693970
28 N     0.0008731438    -0.0005305126    -0.0002354651
29 N     0.0009194788    -0.0004766285    -0.0002100720
30 N     0.0008367046    -0.0004673190    -0.0000736418
31 N     0.0009192496    -0.0004764491    -0.0006486096
32 N     0.0008896614    -0.0004656173     0.0007380854
33 N     0.0008784417    -0.0005044559     0.0004206111
34 N     0.0008924446    -0.0004550916    -0.0005285564
35 N     0.0009005126    -0.0004798977     0.0006202882
36 H     0.0008500947    -0.0004972600    -0.0000137013
37 H     0.0008507371    -0.0004923299     0.0000098873
38 H     0.0008560287    -0.0004828118     0.0000035942
39 H     0.0008549895    -0.0004811968    -0.0002757021
40 H     0.0008527818    -0.0004856122    -0.0000011838
41 H     0.0008541198    -0.0004845454    -0.0001003127
42 H     0.0008511716    -0.0004854122    -0.0001476013
43 H     0.0008438155    -0.0004964952    -0.0001563086
44 H     0.0008502742    -0.0004854853    -0.0000971489
45 H     0.0008488841    -0.0004846736    -0.0000915980
46 H     0.0008539567    -0.0004861013    -0.0001384416
47 H     0.0008589374    -0.0004892440    -0.0001130606
48 H     0.0008535747    -0.0004861451    -0.0001046510
49 H     0.0008513442    -0.0004886075    -0.0000040683
50 H     0.0008547449    -0.0004890428    -0.0000334062
----------------------------------------------
7 Energy: -236.681414457
7 Hessian update information:
7 * Change: RMS: 6.27e-05, max: 0.00113
7 Trust update: Fletcher's parameter: -1.41
7 Linear interpolation:
7 * Energies: -236.68141, -236.68154
7 * Derivatives: -0.000108, 5.96e-05
7 * Cubic interpolation was performed: t = 0.915
7 * Interpolated energy: -236.68154
7 Minimization on sphere was performed:
7 * Trust radius: 0.024
7 * Number of negative eigenvalues: 0
7 * Lowest eigenvalue: 0.00496
7 * lambda: -0.00749
7 Quadratic step: RMS: 0.00128, max: 0.00499
7 * Predicted energy change: -9.06e-06
7 Total step: RMS: 0.00322, max: 0.0152
7 Perfect transformation to cartesians in 3 iterations
7 * RMS(dcart): 3.79e-07, RMS(dq): 2.82e-07
7 Convergence criteria:
7 * Gradient RMS: 0.000597 > 0.0003 => no
7 * Gradient maximum: 0.00095 > 0.00045 => no
7 * Minimization on sphere: Minimization on sphere => no
New geometry (unit Bohr)
   1 B     -9.365417132708  -5.141019233586  -0.016385992334
   2 B      1.939195123940   6.467866614518   0.020079321365
   3 B    -11.943819795611  -1.229582771392   0.041426059955
   4 B     -0.247829581860   2.166174989142  -0.017988578637
   5 B     -2.007383207164  -0.889246633748  -0.038197113133
   6 B     -4.941528709666  10.929850431330   0.117211700076
   7 B     -4.630135908582  -4.939923875072  -0.056760457225
   8 B     -0.264199183495  10.663622291556   0.086622555524
   9 B     -7.149111488653  -0.902865218307   0.005821276999
  10 B     -2.817169470937   6.619305289335   0.054132922448
  11 B    -10.125460784111   3.084100052174   0.069530337088
  12 C     -5.516319947110   3.165151819635   0.036393820661
  13 B     -7.759755918303   7.191893544176   0.094453402307
  14 B      4.687757124392   2.673879973914  -0.049486083536
  15 B      0.031536920488  -5.411842974539  -0.104845495229
  16 B      2.511303113097  -1.456269011891  -0.082584064427
  17 B      4.789213290987  -5.558172474226  -0.148665059101
  18 B      7.202915406200  -1.366766020001  -0.119486655700
  19 N     -6.975356970916  -6.315315121798  -0.049160463649
  20 N      1.951440282441   9.186307713129   0.055078865408
  21 N     -9.465214440865  -2.404959776845   0.010657451024
  22 N     -0.495614057444   5.031678552906   0.018826368671
  23 N    -12.269433788011   1.462941551107   0.070813171857
  24 N     -7.433780633504   9.859838716013   0.121284848922
  25 N     -4.610487284539  -2.113412771290  -0.028261941594
  26 N     -2.680632225968   9.376288052846   0.086669164359
  27 N      4.406649309030   5.336783728546  -0.012154598444
  28 N     -2.412857535468  -6.505681156875  -0.093158859621
  29 N     -7.669321990396   1.847836794033   0.038185460231
  30 N     -5.457517928579   5.688369508735   0.062454746000
  31 N    -10.099572130857   5.804219609504   0.096540094328
  32 N      2.382080233648   1.245952585635  -0.048723842312
  33 N      2.381125757044  -6.799540316730  -0.141556742791
  34 N      7.067679795835   1.338853834273  -0.086063302593
  35 N      0.109065692836  -2.701090872544  -0.075785323706
  36 N      4.877866368278  -2.818658067224  -0.118936140218
  37 H     -8.905180430781  11.040951948436   0.143098962652
  38 H    -11.736571416564   6.746852963681   0.118282623468
  39 H    -14.029641868412   2.142489176744   0.090927750672
  40 H    -13.769119790133  -2.543309363225   0.044596373733
  41 H    -11.245875680272  -6.375697759323  -0.012806243107
  42 H     -6.891927772453  -8.201904129326  -0.067678041906
  43 H     -2.631936864393  -8.381113652483  -0.110448199123
  44 H      2.368482897011  -8.689467143777  -0.160420899236
  45 H      6.693662194274  -6.770582055607  -0.176938602770
  46 H      9.207644506066  -2.405077831238  -0.147770520253
  47 H      8.695955464299   2.298592784684  -0.086520944232
  48 H      5.918686980230   6.467861484252  -0.009670662253
  49 H      3.625011923589  10.061366549439   0.055458626296
  50 H     -0.140260034705  12.909622898898   0.112621142139
  51 H     -4.721361865439  13.167807176965   0.140719846148


******** <class 'pyscf.scf.hf.as_scanner.<locals>.SCF_Scanner'> flags ********
method = SCF_Scanner-RHF
initial guess = minao
damping factor = 0
level shift factor = 0
DIIS = <class 'pyscf.scf.diis.CDIIS'>
DIIS start cycle = 1
DIIS space = 8
SCF tol = 1e-09
SCF gradient tol = None
max. SCF cycles = 50
direct_scf = False
chkfile to save SCF result = /tmp/tmp3jycwfgm
max_memory 24000 MB (current use 1103 MB)
Set gradient conv threshold to 3.16228e-05
init E= -236.680736379058
  HOMO = -0.279678756573961  LUMO = 0.102360630730897
cycle= 1 E= -236.681412909757  delta_E= -0.000677  |g|= 0.00809  |ddm|= 0.0456
  HOMO = -0.279552799456885  LUMO = 0.102506637156496
cycle= 2 E= -236.681454053517  delta_E= -4.11e-05  |g|= 0.00289  |ddm|= 0.0127
  HOMO = -0.279560278432592  LUMO = 0.102493760791281
cycle= 3 E= -236.681461229773  delta_E= -7.18e-06  |g|= 0.000507  |ddm|= 0.00748
  HOMO = -0.279564536272147  LUMO = 0.102495272009469
cycle= 4 E= -236.681461467815  delta_E= -2.38e-07  |g|= 0.000241  |ddm|= 0.0014
  HOMO = -0.279556845387619  LUMO = 0.102499383454068
cycle= 5 E= -236.681461513521  delta_E= -4.57e-08  |g|= 9.01e-05  |ddm|= 0.000626
  HOMO = -0.279561222670865  LUMO = 0.102496209978217
cycle= 6 E= -236.681461523336  delta_E= -9.82e-09  |g|= 4.02e-05  |ddm|= 0.000319
  HOMO = -0.27955977358453  LUMO = 0.102497342722848
cycle= 7 E= -236.681461525988  delta_E= -2.65e-09  |g|= 1.99e-05  |ddm|= 0.00018
  HOMO = -0.279560005225771  LUMO = 0.102497103802106
cycle= 8 E= -236.681461526685  delta_E= -6.97e-10  |g|= 8.26e-06  |ddm|= 0.000102
  HOMO = -0.279560106585115  LUMO = 0.102497108651816
Extra cycle  E= -236.681461526761  delta_E= -7.62e-11  |g|= 5.34e-06  |ddm|= 2.18e-05
converged SCF energy = -236.681461526761


******** <class 'pyscf.grad.rhf.as_scanner.<locals>.SCF_GradScanner'> for <class 'pyscf.scf.hf.as_scanner.<locals>.SCF_Scanner'> ********
max_memory 24000 MB (current use 18562 MB)
--------------- SCF_Scanner gradients ---------------
         x                y                z
0 B     0.0008599435    -0.0004900817     0.0000703905
1 B     0.0008649017    -0.0004816427    -0.0000383173
2 B     0.0008668608    -0.0004916620    -0.0001615301
3 B     0.0009368215    -0.0003774547    -0.0001481257
4 B     0.0007855928    -0.0006933441    -0.0000954465
5 B     0.0008406610    -0.0004860241    -0.0001004992
6 B     0.0008630865    -0.0004851463    -0.0000148562
7 B     0.0008228310    -0.0004904610    -0.0000511019
8 B     0.0008790112    -0.0005048760    -0.0000380162
9 B     0.0008621923    -0.0005100659    -0.0001175956
10 B     0.0008534928    -0.0004759177    -0.0000310035
11 C     0.0006619793    -0.0003940925    -0.0000111464
12 B     0.0008355327    -0.0005215440    -0.0000612645
13 B     0.0008564464    -0.0004905346    -0.0000504037
14 B     0.0008548244    -0.0004946735    -0.0000553578
15 B     0.0008363708    -0.0004891080    -0.0000500713
16 B     0.0008549090    -0.0004811940    -0.0000604225
17 B     0.0008511947    -0.0004931513     0.0000691452
18 N     0.0008358419    -0.0004875768    -0.0000902136
19 N     0.0008750684    -0.0005379375     0.0000357168
20 N     0.0008340051    -0.0004585044     0.0000692602
21 N     0.0008566705    -0.0005522389     0.0000394878
22 N     0.0008678996    -0.0004833478     0.0001253889
23 N     0.0008770375    -0.0005049048     0.0000697058
24 N     0.0007942996    -0.0004682825     0.0000244421
25 N     0.0008563932    -0.0005096578     0.0001953498
26 N     0.0008294867    -0.0004631179     0.0000978752
27 N     0.0008541557    -0.0004989867     0.0000289751
28 N     0.0008599394    -0.0005298744     0.0000292379
29 N     0.0008968670    -0.0004784636     0.0000632083
30 N     0.0008371466    -0.0004750182    -0.0000204902
31 N     0.0008977874    -0.0004832749     0.0001571264
32 N     0.0008479024    -0.0004873245    -0.0000749565
33 N     0.0008518310    -0.0004771281    -0.0001170697
34 N     0.0008662607    -0.0004716872     0.0001375679
35 N     0.0008634057    -0.0004722419    -0.0001110879
36 H     0.0008518946    -0.0004916253    -0.0000222327
37 H     0.0008478947    -0.0004890576    -0.0000176032
38 H     0.0008515832    -0.0004894095    -0.0000262928
39 H     0.0008407465    -0.0004914648     0.0000358607
40 H     0.0008473134    -0.0004858558    -0.0000442317
41 H     0.0008527428    -0.0004856355     0.0000043485
42 H     0.0008522150    -0.0004853613    -0.0000022741
43 H     0.0008487427    -0.0004859321     0.0000190218
44 H     0.0008458240    -0.0004855159     0.0000200207
45 H     0.0008549193    -0.0004896753    -0.0000209478
46 H     0.0008553579    -0.0004905298    -0.0000000397
47 H     0.0008563582    -0.0004841887    -0.0000210511
48 H     0.0008527089    -0.0004814942    -0.0000060022
49 H     0.0008545879    -0.0004899291    -0.0000150489
50 H     0.0008558521    -0.0004876396     0.0000032265
----------------------------------------------
8 Energy: -236.681461527
8 Hessian update information:
8 * Change: RMS: 8.38e-05, max: 0.00282
[...]
  HOMO = -0.279604985090592  LUMO = 0.102492565066942
Extra cycle  E= -236.681535811336  delta_E=    0  |g|= 1.69e-07  |ddm|= 4.27e-07
converged SCF energy = -236.681535811336


******** <class 'pyscf.grad.rhf.as_scanner.<locals>.SCF_GradScanner'> for <class 'pyscf.scf.hf.as_scanner.<locals>.SCF_Scanner'> ********
max_memory 24000 MB (current use 18618 MB)
--------------- SCF_Scanner gradients ---------------
         x                y                z
0 B     0.0008574686    -0.0005004593     0.0001363938
1 B     0.0008766369    -0.0004359422     0.0000207804
2 B     0.0008915894    -0.0004908510    -0.0002377758
3 B     0.0009055022    -0.0001571527    -0.0002829082
4 B     0.0007611634    -0.0006359003    -0.0005715023
5 B     0.0008120271    -0.0005018335    -0.0000453438
6 B     0.0008304490    -0.0004809035     0.0001770649
7 B     0.0008199610    -0.0004928258     0.0001530874
8 B     0.0008822473    -0.0004767807     0.0000209836
9 B     0.0008764144    -0.0004841239    -0.0001501421
10 B     0.0008176113    -0.0005118436    -0.0001375545
11 C     0.0011139814    -0.0006229459    -0.0000190300
12 B     0.0008530809    -0.0004369254    -0.0000574249
13 B     0.0008673148    -0.0004794922    -0.0000376684
14 B     0.0008795411    -0.0005211888     0.0000854656
15 B     0.0008681730    -0.0004415685     0.0000603980
16 B     0.0008685393    -0.0004889186     0.0001030410
17 B     0.0008264596    -0.0004774130     0.0001914889
18 N     0.0008587742    -0.0005056499    -0.0003774394
19 N     0.0008493120    -0.0004774585    -0.0001251220
20 N     0.0008246205    -0.0005300171     0.0001239223
21 N     0.0008051681    -0.0005273283    -0.0000087007
22 N     0.0008342825    -0.0004576902     0.0002435995
23 N     0.0008224197    -0.0004582979     0.0002287556
24 N     0.0009195644    -0.0005033165     0.0000672057
25 N     0.0008923934    -0.0004227914     0.0001669462
26 N     0.0008757306    -0.0005512637     0.0000955148
27 N     0.0008417196    -0.0004735918    -0.0002568412
28 N     0.0008276500    -0.0004307636    -0.0000712191
29 N     0.0007623829    -0.0005114657     0.0001693391
30 N     0.0008743701    -0.0005058736     0.0001033134
31 N     0.0008026551    -0.0005728330     0.0001959634
32 N     0.0008129690    -0.0004725921    -0.0006224628
33 N     0.0008480485    -0.0004891728    -0.0005291895
34 N     0.0007739951    -0.0004229034     0.0003933628
35 N     0.0008392153    -0.0005369926    -0.0006178806
36 H     0.0008577901    -0.0004808557    -0.0000826630
37 H     0.0008596465    -0.0004877789    -0.0000581285
38 H     0.0008434409    -0.0005050541    -0.0000535509
39 H     0.0008284215    -0.0005000684     0.0000654558
40 H     0.0008444666    -0.0004917428    -0.0000535916
41 H     0.0008437193    -0.0004966632     0.0000809832
42 H     0.0008421123    -0.0005055114     0.0000683088
43 H     0.0008606055    -0.0005228672     0.0001357272
44 H     0.0008305092    -0.0004934333     0.0000886852
45 H     0.0008535000    -0.0005005862     0.0000588951
46 H     0.0008469350    -0.0004973379     0.0000907920
47 H     0.0008360212    -0.0004905566    -0.0000020475
48 H     0.0008369183    -0.0004836008     0.0000336346
49 H     0.0008625231    -0.0004956484    -0.0001055363
50 H     0.0008541326    -0.0004905957    -0.0000483561
----------------------------------------------
34 Energy: -236.681535811
34 Hessian update information:
34 * Change: RMS: 0.0139, max: 0.283
34 Trust update: Fletcher's parameter: -13.5
34 Linear interpolation:
34 * Energies: -236.68154, -236.68154
34 * Derivatives: 5.26e-09, 5.26e-09
34 * Cubic interpolation was performed: t = 0.994
34 * Interpolated energy: -236.68154
34 Minimization on sphere was performed:
34 * Trust radius: 1.5e-06
34 * Number of negative eigenvalues: 0
34 * Lowest eigenvalue: 0.000811
34 * lambda: -6.15e+02
34 Quadratic step: RMS: 7.84e-08, max: 3.41e-07
34 * Predicted energy change: -1.31e-09
34 Total step: RMS: 2.34e-07, max: 1.02e-06
34 Perfect transformation to cartesians in 1 iterations
34 * RMS(dcart): 4.02e-07, RMS(dq): 2.34e-07
34 Convergence criteria:
34 * Gradient RMS: 0.000582 > 0.0003 => no
34 * Gradient maximum: 0.00111 > 0.00045 => no
34 * Minimization on sphere: Minimization on sphere => no
New geometry (unit Bohr)
   1 B     -9.365139570025  -5.141490797261  -0.011392083013
   2 B      1.939345813891   6.468729387299   0.016798466349
   3 B    -11.943117455853  -1.229874568351   0.043793089863
   4 B     -0.248310399494   2.167488761452  -0.034526419613
   5 B     -2.007675309715  -0.888732085060  -0.056267830939
   6 B     -4.941946903882  10.930379525680   0.122230917519
   7 B     -4.630177796018  -4.940199118647  -0.061065029996
   8 B     -0.264217345392  10.664461987316   0.091964425786
   9 B     -7.148602889490  -0.903058289040  -0.000532245323
  10 B     -2.817035774781   6.620311332441   0.051027049529
  11 B    -10.124430837715   3.083765419863   0.067108503579
  12 C     -5.514615019733   3.164862077445   0.030594874258
  13 B     -7.759301298901   7.191816573095   0.096574624671
  14 B      4.687219043869   2.673915258294  -0.057471014896
  15 B      0.031144388935  -5.411845418529  -0.111416304608
  16 B      2.510618128819  -1.455999235659  -0.095457570059
  17 B      4.788592341390  -5.558536076745  -0.143691962234
  18 B      7.202094044364  -1.367177709495  -0.115844705213
  19 N     -6.975206479935  -6.315844466070  -0.047679086164
  20 N      1.951453224875   9.187145320269   0.057708623578
  21 N     -9.464669988706  -2.405363372433   0.010889665085
  22 N     -0.495644973038   5.032813534828   0.009882228923
  23 N    -12.268504336980   1.462694767242   0.071536378299
  24 N     -7.433960239643   9.859859257831   0.127095084955
  25 N     -4.610235965232  -2.113636244240  -0.039023876329
  26 N     -2.680707488784   9.377294850987   0.089404238167
  27 N      4.406524135717   5.336827904757  -0.015368235196
  28 N     -2.413051358985  -6.505943716246  -0.097813524163
  29 N     -7.668085730870   1.847812548036   0.031611430981
  30 N     -5.457005743394   5.688317760788   0.060688345783
  31 N    -10.098821869508   5.803796779807   0.097898860427
  32 N      2.381336225551   1.246276926174  -0.063281229386
  33 N      2.380540184674  -6.799863121137  -0.143021016672
  34 N      7.067006138723   1.338509967140  -0.088997016972
  35 N      0.108452745680  -2.700858268721  -0.088688760979
  36 N      4.877027917806  -2.818912914002  -0.125640803336
  37 H     -8.905573111427  11.040721939873   0.147742222293
  38 H    -11.735909245493   6.746219085794   0.120897913273
  39 H    -14.028713210575   2.142193616152   0.093092200694
  40 H    -13.768564576822  -2.543477812864   0.051852143292
  41 H    -11.245651010926  -6.376078559526  -0.001246612334
  42 H     -6.891730402637  -8.202497618825  -0.059332405353
  43 H     -2.632042195123  -8.381468635547  -0.108014628498
  44 H      2.367968145037  -8.689933882760  -0.149643256732
  45 H      6.693030484524  -6.771170488332  -0.155607279347
  46 H      9.206818460351  -2.405854921631  -0.127996765389
  47 H      8.695427681705   2.297915134860  -0.078509284091
  48 H      5.918787828212   6.467541154943  -0.007591858188
  49 H      3.624942861123  10.062312251782   0.061804420083
  50 H     -0.140018262828  12.910418893179   0.119080709599
  51 H     -4.722186457555  13.168377708354   0.145276453234


******** <class 'pyscf.scf.hf.as_scanner.<locals>.SCF_Scanner'> flags ********
method = SCF_Scanner-RHF
initial guess = minao
damping factor = 0
level shift factor = 0
DIIS = <class 'pyscf.scf.diis.CDIIS'>
DIIS start cycle = 1
DIIS space = 8
SCF tol = 1e-09
SCF gradient tol = None
max. SCF cycles = 50
direct_scf = False
chkfile to save SCF result = /tmp/tmp3jycwfgm
max_memory 24000 MB (current use 1158 MB)
Set gradient conv threshold to 3.16228e-05
init E= -236.681535567476
  HOMO = -0.279605062548768  LUMO = 0.102492538385107
cycle= 1 E= -236.681535918765  delta_E= -3.51e-07  |g|= 5.75e-07  |ddm|= 4.06e-06
  HOMO = -0.279605047380004  LUMO = 0.102492578985281
cycle= 2 E= -236.681535918766  delta_E= -4.55e-13  |g|= 2.86e-07  |ddm|= 1.3e-06
  HOMO = -0.279605045359528  LUMO = 0.102492564745721
Extra cycle  E= -236.681535918766  delta_E= -2.27e-13  |g|= 1.7e-07  |ddm|= 5.08e-07
converged SCF energy = -236.681535918766


******** <class 'pyscf.grad.rhf.as_scanner.<locals>.SCF_GradScanner'> for <class 'pyscf.scf.hf.as_scanner.<locals>.SCF_Scanner'> ********
max_memory 24000 MB (current use 18618 MB)
--------------- SCF_Scanner gradients ---------------
         x                y                z
0 B     0.0008574858    -0.0005004858     0.0001364152
1 B     0.0008766356    -0.0004359070     0.0000207809
2 B     0.0008916425    -0.0004908477    -0.0002378116
3 B     0.0009055152    -0.0001569423    -0.0002829388
4 B     0.0007611281    -0.0006359279    -0.0005715648
5 B     0.0008119820    -0.0005018285    -0.0000453449
6 B     0.0008304570    -0.0004809520     0.0001770797
7 B     0.0008199315    -0.0004927944     0.0001531067
8 B     0.0008822892    -0.0004767352     0.0000209851
9 B     0.0008764296    -0.0004841407    -0.0001501602
10 B     0.0008175542    -0.0005118419    -0.0001375688
11 C     0.0011146728    -0.0006233225    -0.0000190548
12 B     0.0008530350    -0.0004368640    -0.0000574257
13 B     0.0008673060    -0.0004795046    -0.0000376846
14 B     0.0008795535    -0.0005212826     0.0000854642
15 B     0.0008681566    -0.0004415047     0.0000603930
16 B     0.0008685294    -0.0004889381     0.0001030505
17 B     0.0008264147    -0.0004774061     0.0001915125
18 N     0.0008587822    -0.0005056402    -0.0003774813
19 N     0.0008493265    -0.0004773570    -0.0001251331
20 N     0.0008245563    -0.0005300901     0.0001239402
21 N     0.0008050667    -0.0005273202    -0.0000087058
22 N     0.0008342169    -0.0004576791     0.0002436347
23 N     0.0008223707    -0.0004582021     0.0002287766
24 N     0.0009196514    -0.0005032815     0.0000672075
25 N     0.0008924604    -0.0004227000     0.0001669663
26 N     0.0008758613    -0.0005513365     0.0000955292
27 N     0.0008416785    -0.0004734919    -0.0002568636
28 N     0.0008274747    -0.0004308174    -0.0000712151
29 N     0.0007623153    -0.0005112836     0.0001693713
30 N     0.0008744124    -0.0005058921     0.0001033206
31 N     0.0008025733    -0.0005728698     0.0001960039
32 N     0.0008129369    -0.0004724823    -0.0006225230
33 N     0.0008480704    -0.0004891897    -0.0005292427
34 N     0.0007738629    -0.0004227070     0.0003934259
35 N     0.0008392389    -0.0005370488    -0.0006179410
36 H     0.0008577960    -0.0004808458    -0.0000826694
37 H     0.0008596695    -0.0004877860    -0.0000581322
38 H     0.0008434371    -0.0005050700    -0.0000535525
39 H     0.0008283992    -0.0005000885     0.0000654694
40 H     0.0008444618    -0.0004917518    -0.0000535953
41 H     0.0008437107    -0.0004966871     0.0000809940
42 H     0.0008420946    -0.0005055646     0.0000683205
43 H     0.0008606147    -0.0005229605     0.0001357452
44 H     0.0008304865    -0.0004934346     0.0000887036
45 H     0.0008535038    -0.0005005975     0.0000589080
46 H     0.0008469227    -0.0004973467     0.0000908067
47 H     0.0008359853    -0.0004905786    -0.0000020419
48 H     0.0008368894    -0.0004836086     0.0000336407
49 H     0.0008625271    -0.0004956594    -0.0001055459
50 H     0.0008541290    -0.0004906015    -0.0000483602
----------------------------------------------
35 Energy: -236.681535919
35 Hessian update information:
35 * Change: RMS: 0.287, max: 6.22
35 Trust update: Fletcher's parameter: 81.9
35 Linear interpolation:
35 * Energies: -236.68154, -236.68154
35 * Derivatives: 1.34e-09, 1.34e-09
35 * Cubic interpolation was performed: t = 0.994
35 * Interpolated energy: -236.68154
35 Minimization on sphere was performed:
35 * Trust radius: 2.9e-06
35 * Number of negative eigenvalues: 0
35 * Lowest eigenvalue: 1.4e-06
35 * lambda: -3.08e+02
35 Quadratic step: RMS: 1.57e-07, max: 6.81e-07
35 * Predicted energy change: -2.62e-09
35 Total step: RMS: 7.7e-08, max: 3.34e-07
35 Perfect transformation to cartesians in 1 iterations
35 * RMS(dcart): 1.32e-07, RMS(dq): 7.7e-08
35 Convergence criteria:
35 * Gradient RMS: 0.000582 > 0.0003 => no
35 * Gradient maximum: 0.00111 > 0.00045 => no
35 * Minimization on sphere: Minimization on sphere => no
New geometry (unit Bohr)
   1 B     -9.365139631965  -5.141490577005  -0.011392242233
   2 B      1.939345707656   6.468729051279   0.016798579465
   3 B    -11.943117677352  -1.229874418600   0.043792880580
   4 B     -0.248310300317   2.167488308575  -0.034525836335
   5 B     -2.007675160692  -0.888732181193  -0.056267176350
   6 B     -4.941946755441  10.930379314808   0.122230838263
   7 B     -4.630177769098  -4.940198994513  -0.061064759877
   8 B     -0.264217330724  10.664461603013   0.091964307293
   9 B     -7.148603087504  -0.903058127094  -0.000532032160
  10 B     -2.817035910939   6.620311008165   0.051027223001
  11 B    -10.124431201713   3.083765571508   0.067108501971
  12 C     -5.514615746017   3.164862287682   0.030595124660
  13 B     -7.759301474393   7.191816628330   0.096574593754
  14 B      4.687219132863   2.673915237711  -0.057470816618
  15 B      0.031144583483  -5.411845422771  -0.111415986208
  16 B      2.510618388199  -1.455999347330  -0.095457170038
  17 B      4.788592661582  -5.558536004632  -0.143692112233
  18 B      7.202094350047  -1.367177561071  -0.115844932963
  19 N     -6.975206509256  -6.315844255316  -0.047678994217
  20 N      1.951453183597   9.187144932851   0.057708559778
  21 N     -9.464670133110  -2.405363167104   0.010889593032
  22 N     -0.495645026325   5.032813147116   0.009882587630
  23 N    -12.268504639567   1.462694894320   0.071536143780
  24 N     -7.433960177750   9.859859233403   0.127094972000
  25 N     -4.610236025405  -2.113636127171  -0.039023441252
  26 N     -2.680707496621   9.377294473189   0.089404182201
  27 N      4.406524065029   5.336827843693  -0.015368221138
  28 N     -2.413051250652  -6.505943640269  -0.097813227978
  29 N     -7.668086178696   1.847812672939   0.031611625356
  30 N     -5.457006020079   5.688317777837   0.060688442018
  31 N    -10.098822168697   5.803796958782   0.097898810831
  32 N      2.381336410201   1.246276783876  -0.063280835800
  33 N      2.380540471262  -6.799863071209  -0.143020861677
  34 N      7.067006310669   1.338510109510  -0.088996995552
  35 N      0.108452993813  -2.700858396292  -0.088688348063
  36 N      4.877028236610  -2.818912846093  -0.125640608180
  37 H     -8.905572968729  11.040722017573   0.147742170667
  38 H    -11.735909521696   6.746219331243   0.120897812770
  39 H    -14.028713512980   2.142193747207   0.093091846846
  40 H    -13.768564719248  -2.543477706423   0.051851640760
  41 H    -11.245651046856  -6.376078361953  -0.001246970776
  42 H     -6.891730446057  -8.202497395907  -0.059332505207
  43 H     -2.632042102412  -8.381468529049  -0.108014564245
  44 H      2.367968435228  -8.689933778133  -0.149643520641
  45 H      6.693030852739  -6.771170377389  -0.155608093397
  46 H      9.206818807466  -2.405854659235  -0.127997597635
  47 H      8.695427801804   2.297915389610  -0.078509679030
  48 H      5.918787697303   6.467541209311  -0.007592065727
  49 H      3.624942865689  10.062311811251   0.061804216705
  50 H     -0.140018274991  12.910418521515   0.119080597041
  51 H     -4.722186144177  13.168377484014   0.145276410327


******** <class 'pyscf.scf.hf.as_scanner.<locals>.SCF_Scanner'> flags ********
method = SCF_Scanner-RHF
initial guess = minao
damping factor = 0
level shift factor = 0
DIIS = <class 'pyscf.scf.diis.CDIIS'>
DIIS start cycle = 1
DIIS space = 8
SCF tol = 1e-09
SCF gradient tol = None
max. SCF cycles = 50
direct_scf = False
chkfile to save SCF result = /tmp/tmp3jycwfgm
max_memory 24000 MB (current use 1159 MB)
Set gradient conv threshold to 3.16228e-05
init E= -236.681535998935
  HOMO = -0.2796050214962  LUMO = 0.102492574374219
cycle= 1 E= -236.681535883387  delta_E= 1.16e-07  |g|= 2.31e-07  |ddm|= 1.35e-06
  HOMO = -0.279605024732311  LUMO = 0.102492561498767
cycle= 2 E= -236.681535883384  delta_E= 3.18e-12  |g|= 1.34e-07  |ddm|= 4.81e-07
  HOMO = -0.279605026888702  LUMO = 0.102492565315379
Extra cycle  E= -236.681535883386  delta_E= -2.05e-12  |g|= 8.47e-08  |ddm|= 2.14e-07
converged SCF energy = -236.681535883386


******** <class 'pyscf.grad.rhf.as_scanner.<locals>.SCF_GradScanner'> for <class 'pyscf.scf.hf.as_scanner.<locals>.SCF_Scanner'> ********
max_memory 24000 MB (current use 18621 MB)
--------------- SCF_Scanner gradients ---------------
         x                y                z
0 B     0.0008574826    -0.0005004771     0.0001364066
1 B     0.0008766215    -0.0004359213     0.0000207811
2 B     0.0008916241    -0.0004908517    -0.0002378004
3 B     0.0009054936    -0.0001569901    -0.0002829246
4 B     0.0007611178    -0.0006359226    -0.0005715400
5 B     0.0008119982    -0.0005018310    -0.0000453447
6 B     0.0008304572    -0.0004809226     0.0001770753
7 B     0.0008199431    -0.0004928075     0.0001530998
8 B     0.0008822933    -0.0004767649     0.0000209855
9 B     0.0008764388    -0.0004841430    -0.0001501534
10 B     0.0008175714    -0.0005118375    -0.0001375638
11 C     0.0011144470    -0.0006231921    -0.0000190408
12 B     0.0008530511    -0.0004368825    -0.0000574262
13 B     0.0008673218    -0.0004794948    -0.0000376778
14 B     0.0008795448    -0.0005212570     0.0000854659
15 B     0.0008681684    -0.0004415409     0.0000603965
16 B     0.0008685319    -0.0004889344     0.0001030449
17 B     0.0008264328    -0.0004774074     0.0001915023
18 N     0.0008587770    -0.0005056448    -0.0003774668
19 N     0.0008493229    -0.0004773880    -0.0001251301
20 N     0.0008245765    -0.0005300641     0.0001239354
21 N     0.0008051008    -0.0005273240    -0.0000087040
22 N     0.0008342389    -0.0004576832     0.0002436231
23 N     0.0008223859    -0.0004582336     0.0002287695
24 N     0.0009196234    -0.0005032912     0.0000672070
25 N     0.0008924363    -0.0004227292     0.0001669593
26 N     0.0008758191    -0.0005513155     0.0000955228
27 N     0.0008416941    -0.0004735254    -0.0002568571
28 N     0.0008275293    -0.0004307981    -0.0000712199
29 N     0.0007623363    -0.0005113492     0.0001693556
30 N     0.0008743980    -0.0005058875     0.0001033181
31 N     0.0008026025    -0.0005728583     0.0001959895
32 N     0.0008129486    -0.0004725179    -0.0006225014
33 N     0.0008480613    -0.0004891840    -0.0005292238
34 N     0.0007739118    -0.0004227700     0.0003934038
35 N     0.0008392295    -0.0005370282    -0.0006179157
36 H     0.0008577945    -0.0004808492    -0.0000826672
37 H     0.0008596620    -0.0004877836    -0.0000581313
38 H     0.0008434367    -0.0005050641    -0.0000535528
39 H     0.0008284062    -0.0005000818     0.0000654640
40 H     0.0008444631    -0.0004917488    -0.0000535951
41 H     0.0008437132    -0.0004966790     0.0000809897
42 H     0.0008421010    -0.0005055449     0.0000683157
43 H     0.0008606117    -0.0005229283     0.0001357374
44 H     0.0008304940    -0.0004934338     0.0000886950
45 H     0.0008535021    -0.0005005937     0.0000589014
46 H     0.0008469255    -0.0004973440     0.0000907999
47 H     0.0008359981    -0.0004905710    -0.0000020450
48 H     0.0008368983    -0.0004836062     0.0000336380
49 H     0.0008625256    -0.0004956557    -0.0001055430
50 H     0.0008541302    -0.0004905992    -0.0000483588
----------------------------------------------
36 Energy: -236.681535883
36 Hessian update information:
36 * Change: RMS: 0.273, max: 5.95
36 Trust update: Fletcher's parameter: -13.5
36 Linear interpolation:
36 * Energies: -236.68154, -236.68154
36 * Derivatives: 2.63e-09, 2.63e-09
36 * Cubic interpolation was performed: t = 0.994
36 * Interpolated energy: -236.68154
