#INFO: **** input file is /tigress/xingz/pydmfet/examples/research/CBVN/CBVN.py ****
from pydmfet import locints, sdmfet,oep,tools,dfet_ao
from pydmfet.qcwrap.pyscf_rks_ao import rks_ao
from pyscf import gto, scf, ao2mo, geomopt
import numpy as np
from pyscf.tools import molden
import time
from pydmfet import dfet_ao
from pydmfet.dfet_ao import dfet

bas ='stuttgartdz'
ecp = 'stuttgartdz'
temp = 0.005


mol = gto.Mole()
mol.atom = open('CBVN1.xyz').read()
mol.basis = {'H':'ccpvdz', 'B':bas, 'C':bas, 'N':bas}
mol.ecp = ecp
mol.charge = 0
mol.build(max_memory = 24000, verbose=4)


mf = scf.RHF(mol)
#mf = rks_ao(mol,smear_sigma = temp)
#mf.xc = "pbe,pbe"
mf.max_cycle = 50

#DMguess = None
#mf.scf(dm0=DMguess)

opt1 = geomopt.optimize(mf)
#INFO: ******************** input file end ********************


System: uname_result(system='Linux', node='tiger-h26c1n21', release='3.10.0-957.27.2.el7.x86_64', version='#1 SMP Tue Jul 30 11:12:20 EDT 2019', machine='x86_64', processor='x86_64')  Threads 40
Python 3.7.0 (default, Jun 28 2018, 13:15:42) 
[GCC 7.2.0]
numpy 1.16.4  scipy 1.4.0.dev0+0f78e0f
Date: Fri Sep  6 22:36:39 2019
PySCF version 1.5
PySCF path  /home/xingz/.local/lib/python3.7/site-packages/pyscf

[CONFIG] conf_file None
[INPUT] verbose = 4
[INPUT] num. atoms = 51
[INPUT] num. electrons = 160
[INPUT] charge = 0
[INPUT] spin (= nelec alpha-beta = 2S) = 0
[INPUT] symmetry False subgroup None
[INPUT] Mole.unit = angstrom
[INPUT]  1 B     -4.950586427720  -2.722009163400  -0.045616861320 AA   -9.355252504380  -5.143851827382  -0.086203374556 Bohr
[INPUT]  2 B      1.023268960950   3.423857348760   0.003774019731 AA    1.933698087964   6.470152678736   0.007131863681 Bohr
[INPUT]  3 B     -6.310227384480  -0.652798955802   0.046145543192 AA  -11.924601540398  -1.233611240868   0.087202438502 Bohr
[INPUT]  4 B     -0.139119650865   1.157006552180  -0.022254490372 AA   -0.262898038680   2.186425507947  -0.042054891844 Bohr
[INPUT]  5 B     -1.060227026500  -0.473081368848  -0.064523233944 AA   -2.003538709947  -0.893994221757  -0.121931240825 Bohr
[INPUT]  6 B     -2.615218261140   5.784198364200   0.075617293919 AA   -4.942046269516  10.930550758495   0.142895975788 Bohr
[INPUT]  7 B     -2.446646541240  -2.610579870300  -0.064953505529 AA   -4.623491886558  -4.933280981170  -0.122744336281 Bohr
[INPUT]  8 B     -0.140704419357   5.645029857960  -0.023388432115 AA   -0.265892817101  10.667560396537  -0.044197731180 Bohr
[INPUT]  9 B     -3.774489199700  -0.479424020513  -0.008137024308 AA   -7.132750847562  -0.905980096307  -0.015376747412 Bohr
[INPUT] 10 B     -1.486466405430   3.506403203470   0.042076936622 AA   -2.809014399629   6.626141736856   0.079513886376 Bohr
[INPUT] 11 B     -5.350654895180   1.630568558200   0.059420626917 AA  -10.111272338954   3.081328002325   0.112288711023 Bohr
[INPUT] 12 C     -2.911370437430   1.675125055400   0.044716964623 AA   -5.501692773898   3.165527579103   0.084502816259 Bohr
[INPUT] 13 B     -4.103043555930   3.805314095040   0.095239819686 AA   -7.753628597869   7.191001457573   0.179977175359 Bohr
[INPUT] 14 B      2.470867992480   1.412279419280   0.000753555229 AA    4.669263795741   2.668821313799   0.001424013003 Bohr
[INPUT] 15 B      0.016200984210  -2.864455319180  -0.069892778198 AA    0.030615423106  -5.413036049304  -0.132078208879 Bohr
[INPUT] 16 B      1.322016687950  -0.770018897192  -0.053298741869 AA    2.498249472330  -1.455124826433  -0.100720024917 Bohr
[INPUT] 17 B      2.528007416740  -2.939544209520  -0.075544386805 AA    4.777241658508  -5.554933487044  -0.142758201310 Bohr
[INPUT] 18 B      3.801010345350  -0.723898591757  -0.035802367123 AA    7.182868549350  -1.367970080379  -0.067656668475 Bohr
[INPUT] 19 N     -3.686073914930  -3.338993878600  -0.085895844335 AA   -6.965670174121  -6.309783962153  -0.162319621032 Bohr
[INPUT] 20 N      1.030990231120   4.860359480690  -0.042440334138 AA    1.948289173919   9.184748285437  -0.080200608156 Bohr
[INPUT] 21 N     -5.001616205720  -1.274392034270   0.001104323793 AA   -9.451684808997  -2.408251920098   0.002086869522 Bohr
[INPUT] 22 N     -0.264077483948   2.669233872740   0.009669597239 AA   -0.499034120326   5.044120981891   0.018272890517 Bohr
[INPUT] 23 N     -6.484098942230   0.771654929125   0.071279620717 AA  -12.253171165397   1.458216478717   0.134698961418 Bohr
[INPUT] 24 N     -3.932106097090   5.217023045560   0.113204974885 AA   -7.430603616233   9.858744741653   0.213926398471 Bohr
[INPUT] 25 N     -2.435890909180  -1.118322446410  -0.047306365641 AA   -4.603166687668  -2.113323142668  -0.089396075010 Bohr
[INPUT] 26 N     -1.417536395260   4.965551018820   0.040915117471 AA   -2.678755558645   9.383531483125   0.077318366374 Bohr
[INPUT] 27 N      2.325945535200   2.820821520380   0.029799797574 AA    4.395400042183   5.330580119797   0.056313455982 Bohr
[INPUT] 28 N     -1.276882168750  -3.440393105490  -0.074047160978 AA   -2.412957592278  -6.501400730218  -0.139928854550 Bohr
[INPUT] 29 N     -4.050429903290   0.976374595219   0.025848335021 AA   -7.654203203967   1.845080579947   0.048846273966 Bohr
[INPUT] 30 N     -2.883318219870   3.010958393290   0.070692195860 AA   -5.448681765523   5.689886735779   0.133588889320 Bohr
[INPUT] 31 N     -5.338758971560   3.068649209330   0.092001989187 AA  -10.088792301313   5.798906577997   0.173858562478 Bohr
[INPUT] 32 N      1.249089800290   0.660226962644  -0.023351124256 AA    2.360437627536   1.247648139451  -0.044127229544 Bohr
[INPUT] 33 N      1.256415169310  -3.595425187080  -0.083413881043 AA    2.374280568745  -6.794368904944  -0.157629390158 Bohr
[INPUT] 34 N      3.727295533920   0.705083072700  -0.006433292161 AA    7.043567744423   1.332413902470  -0.012157160264 Bohr
[INPUT] 35 N      0.055060078419  -1.432727183990  -0.056190809991 AA    0.104048468608  -2.707461988960  -0.106185241600 Bohr
[INPUT] 36 N      2.573831212130  -1.491757679010  -0.063370740712 AA    4.863836081783  -2.819013457546  -0.119753344257 Bohr
[INPUT] 37 H     -4.708427852180   5.845669209020   0.117107349624 AA   -8.897639117894  11.046713819851   0.221300817963 Bohr
[INPUT] 38 H     -6.205838791270   3.566963289140   0.107560685808 AA  -11.727335688702   6.740583712852   0.203260237948 Bohr
[INPUT] 39 H     -7.418665316640   1.123042671840   0.093312312820 AA  -14.019245658259   2.122243075977   0.176334715279 Bohr
[INPUT] 40 H     -7.280031006070  -1.350573822340   0.063149298169 AA  -13.757264779814  -2.552214635230   0.119334878497 Bohr
[INPUT] 41 H     -5.947650605820  -3.374767544980  -0.052478161646 AA  -11.239430729603  -6.377386394083  -0.099169353032 Bohr
[INPUT] 42 H     -3.639619460800  -4.337092957760  -0.103170730749 AA   -6.877883978549  -8.195917866946  -0.194964425187 Bohr
[INPUT] 43 H     -1.394918233310  -4.431881250460  -0.076362177536 AA   -2.636013427118  -8.375041779964  -0.144303601818 Bohr
[INPUT] 44 H      1.252157021180  -4.593151003300  -0.070287655211 AA    2.366233834981  -8.679797445008  -0.132824418286 Bohr
[INPUT] 45 H      3.530395195730  -3.582605319770  -0.050823932661 AA    6.671480031410  -6.770142866775  -0.096043313303 Bohr
[INPUT] 46 H      4.862546417790  -1.274785258540  -0.004534778542 AA    9.188880997608  -2.408995006273  -0.008569489481 Bohr
[INPUT] 47 H      4.589223550320   1.210615042300   0.030925505071 AA    8.672375634509   2.287730872226   0.058440734848 Bohr
[INPUT] 48 H      3.124255919900   3.421326801350   0.046509898594 AA    5.903988031662   6.465370637186   0.087890970425 Bohr
[INPUT] 49 H      1.912214509970   5.329762608220  -0.087998453463 AA    3.613561715263  10.071791638483  -0.166292976430 Bohr
[INPUT] 50 H     -0.066640539343   6.830165636250  -0.084195751182 AA   -0.125932368152  12.907142437928  -0.159106910585 Bohr
[INPUT] 51 H     -2.490982274500   6.967608075410   0.052767243850 AA   -4.707274279951  13.166871005833   0.099715639224 Bohr

nuclear repulsion = 1564.37158747369
number of shells = 189
number of NR pGTOs = 681
number of NR cGTOs = 363
basis = {'H': 'ccpvdz', 'B': 'stuttgartdz', 'C': 'stuttgartdz', 'N': 'stuttgartdz'}
ecp = stuttgartdz
CPU time:         2.90
Create scanner for <class 'pyscf.grad.rhf.Gradients'>
Create scanner for <class 'pyscf.scf.hf.RHF'>
0 Internal coordinates:
0 * Number of fragments: 1
0 * Number of internal coordinates: 347
0 * Number of strong bonds: 61
0 * Number of strong angles: 106
0 * Number of strong dihedrals: 180
New geometry (unit Bohr)
   1 B     -9.355252504380  -5.143851827382  -0.086203374556
   2 B      1.933698087964   6.470152678736   0.007131863681
   3 B    -11.924601540398  -1.233611240868   0.087202438502
   4 B     -0.262898038680   2.186425507947  -0.042054891844
   5 B     -2.003538709947  -0.893994221757  -0.121931240825
   6 B     -4.942046269516  10.930550758495   0.142895975788
   7 B     -4.623491886558  -4.933280981170  -0.122744336281
   8 B     -0.265892817101  10.667560396537  -0.044197731180
   9 B     -7.132750847562  -0.905980096307  -0.015376747412
  10 B     -2.809014399629   6.626141736856   0.079513886376
  11 B    -10.111272338954   3.081328002325   0.112288711023
  12 C     -5.501692773898   3.165527579103   0.084502816259
  13 B     -7.753628597869   7.191001457573   0.179977175359
  14 B      4.669263795741   2.668821313799   0.001424013003
  15 B      0.030615423106  -5.413036049304  -0.132078208879
  16 B      2.498249472330  -1.455124826433  -0.100720024917
  17 B      4.777241658508  -5.554933487044  -0.142758201310
  18 B      7.182868549350  -1.367970080379  -0.067656668475
  19 N     -6.965670174121  -6.309783962153  -0.162319621032
  20 N      1.948289173919   9.184748285437  -0.080200608156
  21 N     -9.451684808997  -2.408251920098   0.002086869522
  22 N     -0.499034120326   5.044120981891   0.018272890517
  23 N    -12.253171165397   1.458216478717   0.134698961418
  24 N     -7.430603616233   9.858744741653   0.213926398471
  25 N     -4.603166687668  -2.113323142668  -0.089396075010
  26 N     -2.678755558645   9.383531483125   0.077318366374
  27 N      4.395400042183   5.330580119797   0.056313455982
  28 N     -2.412957592278  -6.501400730218  -0.139928854550
  29 N     -7.654203203967   1.845080579947   0.048846273966
  30 N     -5.448681765523   5.689886735779   0.133588889320
  31 N    -10.088792301313   5.798906577997   0.173858562478
  32 N      2.360437627536   1.247648139451  -0.044127229544
  33 N      2.374280568745  -6.794368904944  -0.157629390158
  34 N      7.043567744423   1.332413902470  -0.012157160264
  35 N      0.104048468608  -2.707461988960  -0.106185241600
  36 N      4.863836081783  -2.819013457546  -0.119753344257
  37 H     -8.897639117894  11.046713819851   0.221300817963
  38 H    -11.727335688702   6.740583712852   0.203260237948
  39 H    -14.019245658259   2.122243075977   0.176334715279
  40 H    -13.757264779814  -2.552214635230   0.119334878497
  41 H    -11.239430729603  -6.377386394083  -0.099169353032
  42 H     -6.877883978549  -8.195917866946  -0.194964425187
  43 H     -2.636013427118  -8.375041779964  -0.144303601818
  44 H      2.366233834981  -8.679797445008  -0.132824418286
  45 H      6.671480031410  -6.770142866775  -0.096043313303
  46 H      9.188880997608  -2.408995006273  -0.008569489481
  47 H      8.672375634509   2.287730872226   0.058440734848
  48 H      5.903988031662   6.465370637186   0.087890970425
  49 H      3.613561715263  10.071791638483  -0.166292976430
  50 H     -0.125932368152  12.907142437928  -0.159106910585
  51 H     -4.707274279951  13.166871005833   0.099715639224


******** <class 'pyscf.scf.hf.as_scanner.<locals>.SCF_Scanner'> flags ********
method = SCF_Scanner-RHF
initial guess = minao
damping factor = 0
level shift factor = 0
DIIS = <class 'pyscf.scf.diis.CDIIS'>
DIIS start cycle = 1
DIIS space = 8
SCF tol = 1e-09
SCF gradient tol = None
max. SCF cycles = 50
direct_scf = False
chkfile to save SCF result = /tmp/tmpazwqv558
max_memory 24000 MB (current use 75 MB)
Set gradient conv threshold to 3.16228e-05
init E= -196.649102162816
  HOMO = 0.154646295884855  LUMO = 0.19628867057653
cycle= 1 E= -229.540081751578  delta_E= -32.9  |g|= 4.57  |ddm|= 15.1
  HOMO = -0.487824544096012  LUMO = -0.28401834460378
cycle= 2 E= -234.785430483371  delta_E= -5.25  |g|= 2.98  |ddm|= 8.97
  HOMO = -0.31217763444817  LUMO = 0.0273027557541059
cycle= 3 E= -236.612343982349  delta_E= -1.83  |g|= 0.327  |ddm|= 2.26
  HOMO = -0.236810091954778  LUMO = 0.121710481474092
cycle= 4 E= -236.674859501246  delta_E= -0.0625  |g|= 0.106  |ddm|= 0.815
  HOMO = -0.286737117742333  LUMO = 0.100291266708539
cycle= 5 E= -236.680832560073  delta_E= -0.00597  |g|= 0.0355  |ddm|= 0.271
  HOMO = -0.279367932344047  LUMO = 0.101213875335484
cycle= 6 E= -236.681671190014  delta_E= -0.000839  |g|= 0.0143  |ddm|= 0.081
  HOMO = -0.277657069794679  LUMO = 0.102955357229407
cycle= 7 E= -236.681800622487  delta_E= -0.000129  |g|= 0.00485  |ddm|= 0.0371
  HOMO = -0.278927319466736  LUMO = 0.10278315793676
cycle= 8 E= -236.681812847104  delta_E= -1.22e-05  |g|= 0.00103  |ddm|= 0.0139
  HOMO = -0.278638621583487  LUMO = 0.102878313089571
cycle= 9 E= -236.681813316409  delta_E= -4.69e-07  |g|= 0.000255  |ddm|= 0.00236
  HOMO = -0.278676661026513  LUMO = 0.102860407481388
cycle= 10 E= -236.681813358893  delta_E= -4.25e-08  |g|= 9.43e-05  |ddm|= 0.000747
  HOMO = -0.278676429124538  LUMO = 0.102863245072972
cycle= 11 E= -236.681813365872  delta_E= -6.98e-09  |g|= 4.83e-05  |ddm|= 0.000233
  HOMO = -0.278673491965871  LUMO = 0.10286370540647
cycle= 12 E= -236.681813368691  delta_E= -2.82e-09  |g|= 2.56e-05  |ddm|= 0.000154
  HOMO = -0.27867537775179  LUMO = 0.1028629817184
cycle= 13 E= -236.681813369957  delta_E= -1.27e-09  |g|= 1.02e-05  |ddm|= 0.000134
  HOMO = -0.278675103457032  LUMO = 0.102863366529171
cycle= 14 E= -236.681813370187  delta_E= -2.3e-10  |g|= 3.94e-06  |ddm|= 6.54e-05
  HOMO = -0.278675045277789  LUMO = 0.102863197210333
Extra cycle  E= -236.681813370198  delta_E= -1.16e-11  |g|= 2.27e-06  |ddm|= 9.43e-06
converged SCF energy = -236.681813370198


******** <class 'pyscf.grad.rhf.as_scanner.<locals>.SCF_GradScanner'> for <class 'pyscf.scf.hf.as_scanner.<locals>.SCF_Scanner'> ********
max_memory 24000 MB (current use 18199 MB)
--------------- SCF_Scanner gradients ---------------
         x                y                z
0 B     0.0019901379    -0.0012355237     0.0003315325
1 B    -0.0007294025    -0.0007883016     0.0005072621
2 B     0.0035097371     0.0006361761    -0.0000554581
3 B     0.0000925376     0.0060409987     0.0011622911
4 B     0.0023959923    -0.0028727277    -0.0057554940
5 B    -0.0006179686    -0.0010386185     0.0013240835
6 B     0.0016618022     0.0005309177     0.0015313043
7 B    -0.0000456888     0.0006964746     0.0021799107
8 B     0.0034389941    -0.0014203069     0.0004721163
9 B     0.0042665712    -0.0017948742    -0.0003073931
10 B     0.0009916390     0.0003090196    -0.0007219049
11 C     0.0024529175    -0.0012484344    -0.0004434598
12 B     0.0002144421     0.0001338034     0.0000342741
13 B     0.0012768820    -0.0009978890    -0.0006026662
14 B     0.0025164266    -0.0007064745     0.0006489510
15 B     0.0008667769    -0.0007523134    -0.0008711692
16 B     0.0010155681    -0.0010013841    -0.0023104770
17 B    -0.0009779627     0.0008621392    -0.0028899084
18 N     0.0010999037     0.0012616463    -0.0025719044
19 N     0.0012248829    -0.0028330031    -0.0017891228
20 N    -0.0005133601    -0.0004087591     0.0005551569
21 N     0.0003297933     0.0015467985    -0.0000346222
22 N     0.0015913340     0.0003636892     0.0010077144
23 N     0.0012176599    -0.0019894939     0.0015799679
24 N     0.0004008490    -0.0005710397     0.0010141361
25 N     0.0008909654     0.0004725601    -0.0002737695
26 N     0.0010125942    -0.0021600902     0.0012552939
27 N     0.0001422975     0.0007316773    -0.0011636668
28 N     0.0005235805    -0.0011531387    -0.0010431397
29 N     0.0007444736    -0.0004360314     0.0014315642
30 N     0.0018643603    -0.0017848620     0.0005392415
31 N    -0.0019990546    -0.0010357234     0.0009761212
32 N     0.0001688962     0.0000065971    -0.0014435954
33 N    -0.0013505417    -0.0013623894    -0.0004168710
34 N     0.0002027279    -0.0040256031     0.0040787183
35 N     0.0016496202    -0.0016850587     0.0014316279
36 H     0.0009581214     0.0002836983    -0.0005542231
37 H     0.0005072557    -0.0000620581    -0.0003054634
38 H     0.0003401340    -0.0012611777    -0.0003072810
39 H    -0.0010184013    -0.0019141686     0.0001941472
40 H     0.0001299576    -0.0007543737    -0.0002190919
41 H     0.0008485480    -0.0004539653     0.0004709307
42 H     0.0009362687     0.0002063041     0.0003949992
43 H     0.0010479117     0.0018959442     0.0006393447
44 H    -0.0009881173     0.0001452528     0.0011574430
45 H     0.0013521667    -0.0010087141     0.0014143803
46 H     0.0007364983    -0.0008956695     0.0004918450
47 H     0.0003530927    -0.0000353519     0.0001508695
48 H     0.0003856093     0.0005395786    -0.0001979336
49 H     0.0014987660    -0.0013874390    -0.0012534396
50 H     0.0018255276    -0.0006352108    -0.0008399726
----------------------------------------------
1 Energy: -236.68181337
1 Minimization on sphere was performed:
1 * Trust radius: 0.3
1 * Number of negative eigenvalues: 0
1 * Lowest eigenvalue: 0.00492
1 * lambda: -0.0112
1 Quadratic step: RMS: 0.0161, max: 0.0554
1 * Predicted energy change: -0.00158
1 Total step: RMS: 0.0161, max: 0.0554
1 Perfect transformation to cartesians in 5 iterations
1 * RMS(dcart): 6.56e-08, RMS(dq): 8.88e-08
1 Convergence criteria:
1 * Gradient RMS: 0.0015 > 0.0003 => no
1 * Gradient maximum: 0.00604 > 0.00045 => no
1 * Minimization on sphere: Minimization on sphere => no
New geometry (unit Bohr)
   1 B     -9.366650431998  -5.143160793620   0.024696655674
   2 B      1.941061060738   6.464220012652   0.048803671854
   3 B    -11.944016770428  -1.229481455745   0.068350449188
   4 B     -0.242647233842   2.166319145496  -0.019261403671
   5 B     -2.010228475402  -0.894814583122  -0.043925446391
   6 B     -4.939605526774  10.924358044532   0.094458378080
   7 B     -4.632110692158  -4.940001182755  -0.041612438042
   8 B     -0.265600063053  10.657775958368   0.070345067566
   9 B     -7.149871028567  -0.904005383712   0.018986762521
  10 B     -2.813366305864   6.610845418228   0.046959696959
  11 B    -10.131170838742   3.085797194271   0.048771106507
  12 C     -5.523657633509   3.165114256043   0.059659436133
  13 B     -7.761392591287   7.191977261772   0.055767076436
  14 B      4.696026761570   2.675617604390  -0.002796701990
  15 B      0.031389626035  -5.407313589074  -0.138404987836
  16 B      2.512563319988  -1.452134163424  -0.107573122389
  17 B      4.786987592780  -5.551825600030  -0.203726337111
  18 B      7.204905151129  -1.363986623523  -0.117951579471
  19 N     -6.977149753161  -6.317319835483  -0.013879629959
  20 N      1.952602741368   9.181676014241   0.065756339484
  21 N     -9.467386241951  -2.405936813672   0.037959617594
  22 N     -0.492276141777   5.027215421475   0.022217994994
  23 N    -12.273923365304   1.463441913415   0.061464909604
  24 N     -7.433033087816   9.859692737505   0.083510114044
  25 N     -4.614641151638  -2.115015307280  -0.021126532658
  26 N     -2.679483168107   9.368736045720   0.077648653771
  27 N      4.410381237925   5.337350594287   0.069096385137
  28 N     -2.412629921760  -6.502852275652  -0.083175937611
  29 N     -7.675225121166   1.847279231847   0.040011570600
  30 N     -5.458762765550   5.687170299274   0.048447173059
  31 N    -10.102481993815   5.806188318146   0.055362917108
  32 N      2.389171003227   1.248498966823  -0.039940097881
  33 N      2.379157169794  -6.792928019465  -0.195298727094
  34 N      7.074757468246   1.340655945680  -0.050576797405
  35 N      0.109213304270  -2.696733885455  -0.115597734943
  36 N      4.879097399083  -2.813453697812  -0.161538977914
  37 H     -8.900219994819  11.046044330291   0.107274688989
  38 H    -11.738529206304   6.750627516593   0.070687118350
  39 H    -14.037030629982   2.135471762688   0.076423565745
  40 H    -13.773428878899  -2.544015883146   0.097500114793
  41 H    -11.248991339350  -6.376641736648   0.036712690226
  42 H     -6.892643671277  -8.203842560854  -0.034426273471
  43 H     -2.630818226746  -8.378445569507  -0.086395354759
  44 H      2.368126051129  -8.683017348039  -0.214932597712
  45 H      6.686535559135  -6.765475005198  -0.264787760137
  46 H      9.209135697425  -2.405040904231  -0.176234440557
  47 H      8.704587659376   2.297575210057  -0.028519817618
  48 H      5.917181837334   6.474478284986   0.112010235716
  49 H      3.622157314211  10.064429954899   0.059768086546
  50 H     -0.137595317196  12.902615986496   0.089610070673
  51 H     -4.710975193892  13.161220533734   0.144854253124


******** <class 'pyscf.scf.hf.as_scanner.<locals>.SCF_Scanner'> flags ********
method = SCF_Scanner-RHF
initial guess = minao
damping factor = 0
level shift factor = 0
DIIS = <class 'pyscf.scf.diis.CDIIS'>
DIIS start cycle = 1
DIIS space = 8
SCF tol = 1e-09
SCF gradient tol = None
max. SCF cycles = 50
direct_scf = False
chkfile to save SCF result = /tmp/tmpazwqv558
max_memory 24000 MB (current use 878 MB)
Set gradient conv threshold to 3.16228e-05
init E= -236.643225101496
  HOMO = -0.284229169390399  LUMO = 0.0978102452224262
cycle= 1 E= -236.680357547739  delta_E= -0.0371  |g|= 0.0276  |ddm|= 0.183
  HOMO = -0.278102336790594  LUMO = 0.103595604574925
cycle= 2 E= -236.680799478001  delta_E= -0.000442  |g|= 0.0107  |ddm|= 0.0477
  HOMO = -0.279243311427954  LUMO = 0.102584621507586
cycle= 3 E= -236.680869415962  delta_E= -6.99e-05  |g|= 0.00551  |ddm|= 0.0214
  HOMO = -0.279028725020418  LUMO = 0.102778797969691
cycle= 4 E= -236.68088248796  delta_E= -1.31e-05  |g|= 0.00115  |ddm|= 0.00876
  HOMO = -0.278852511468663  LUMO = 0.102922037756935
cycle= 5 E= -236.680883848679  delta_E= -1.36e-06  |g|= 0.000517  |ddm|= 0.00339
  HOMO = -0.278896728169691  LUMO = 0.102891589695589
cycle= 6 E= -236.680884152542  delta_E= -3.04e-07  |g|= 0.000224  |ddm|= 0.00176
  HOMO = -0.278914126087351  LUMO = 0.102875583812304
cycle= 7 E= -236.680884224209  delta_E= -7.17e-08  |g|= 0.000111  |ddm|= 0.000869
  HOMO = -0.278901977806558  LUMO = 0.102882889149774
cycle= 8 E= -236.680884248641  delta_E= -2.44e-08  |g|= 4.15e-05  |ddm|= 0.00063
  HOMO = -0.27890624165223  LUMO = 0.102882005369759
cycle= 9 E= -236.680884252035  delta_E= -3.39e-09  |g|= 1.53e-05  |ddm|= 0.000251
  HOMO = -0.278905592158319  LUMO = 0.102881393923404
cycle= 10 E= -236.680884252342  delta_E= -3.07e-10  |g|= 6.47e-06  |ddm|= 6.68e-05
  HOMO = -0.278905296724367  LUMO = 0.102881817318744
Extra cycle  E= -236.680884252384  delta_E= -4.14e-11  |g|= 3.81e-06  |ddm|= 1.59e-05
converged SCF energy = -236.680884252384


******** <class 'pyscf.grad.rhf.as_scanner.<locals>.SCF_GradScanner'> for <class 'pyscf.scf.hf.as_scanner.<locals>.SCF_Scanner'> ********
max_memory 24000 MB (current use 18505 MB)
--------------- SCF_Scanner gradients ---------------
         x                y                z
0 B     0.0014965814    -0.0007805617     0.0003245825
1 B     0.0003108493    -0.0007697333    -0.0008018647
2 B     0.0021817654     0.0000053218     0.0001825237
3 B     0.0013857655     0.0004533801    -0.0010401053
4 B     0.0000536671    -0.0032053893     0.0012294785
5 B     0.0002911196    -0.0005418836    -0.0015477938
6 B     0.0011380860     0.0000547812    -0.0004771087
7 B     0.0000129990    -0.0000334520    -0.0014610753
8 B     0.0022514491    -0.0010114732    -0.0002246326
9 B     0.0023498364    -0.0016619385    -0.0003828391
10 B     0.0007864854    -0.0001994874     0.0001390030
11 C    -0.0009614160     0.0005867779     0.0003771013
12 B     0.0005902266    -0.0007399872    -0.0003965072
13 B     0.0014201977    -0.0006576780     0.0003110472
14 B     0.0013947915    -0.0003173957    -0.0005059390
15 B     0.0005205714    -0.0006440024     0.0007340637
16 B     0.0009813564    -0.0005118236     0.0016723808
17 B     0.0002388139    -0.0000861008     0.0027305759
18 N     0.0001274607    -0.0006090110     0.0002840607
19 N     0.0017744172    -0.0016303226     0.0011920893
20 N    -0.0000062280    -0.0000082326    -0.0001223510
21 N     0.0009739769    -0.0010706483     0.0000888827
22 N     0.0008407697     0.0000267842    -0.0002486253
23 N     0.0009868718    -0.0006613089     0.0005893513
24 N    -0.0006583870    -0.0004195856    -0.0001258523
25 N     0.0009636502    -0.0006314945     0.0021640607
26 N     0.0007598716    -0.0002006527     0.0010039192
27 N     0.0009090428    -0.0007548654     0.0012114211
28 N     0.0009721346    -0.0005456538     0.0002785735
29 N     0.0009911502    -0.0006352645     0.0001707465
30 N     0.0007230885    -0.0003470571    -0.0002074643
31 N     0.0020350839    -0.0002285333     0.0003832092
32 N     0.0003449162     0.0001640308    -0.0008961298
33 N     0.0008562990    -0.0004440521    -0.0017912700
34 N     0.0007648030     0.0006726681    -0.0014671801
35 N     0.0012621515    -0.0001813048    -0.0033127135
36 H     0.0009934458    -0.0002811259     0.0001395326
37 H     0.0008376477    -0.0004855086     0.0000576576
38 H     0.0007315201    -0.0007802364     0.0000019039
39 H    -0.0000417570    -0.0010182417     0.0000895133
40 H     0.0005681552    -0.0005434215    -0.0001731213
41 H     0.0008957646    -0.0004804478    -0.0001639835
42 H     0.0007645934    -0.0004518231     0.0000024501
43 H     0.0008799193    -0.0005806725     0.0001481963
44 H     0.0001256235    -0.0001280937    -0.0005982876
45 H     0.0011473687    -0.0006346015    -0.0008862423
46 H     0.0009231389    -0.0004981809     0.0000614144
47 H     0.0007055408    -0.0002776256     0.0001766688
48 H     0.0006758792    -0.0000432125    -0.0002250933
49 H     0.0010707556    -0.0007915066     0.0004063637
50 H     0.0011286411    -0.0004782560     0.0006305989
----------------------------------------------
2 Energy: -236.680884252
2 Hessian update information:
2 * Change: RMS: 0.00032, max: 0.0124
2 Trust update: Fletcher's parameter: -0.59
2 Linear interpolation:
2 * Energies: -236.68088, -236.68181
2 * Derivatives: -0.000568, 0.00214
2 * Cubic interpolation was performed: t = 0.805
2 * Interpolated energy: -236.68201
2 Minimization on sphere was performed:
2 * Trust radius: 0.075
2 * Number of negative eigenvalues: 0
2 * Lowest eigenvalue: 0.00496
2 * lambda: -0.0423
2 Quadratic step: RMS: 0.00403, max: 0.013
2 * Predicted energy change: -0.000443
2 Total step: RMS: 0.00994, max: 0.0352
2 Perfect transformation to cartesians in 4 iterations
2 * RMS(dcart): 1.88e-07, RMS(dq): 1.94e-07
2 Convergence criteria:
2 * Gradient RMS: 0.000938 > 0.0003 => no
2 * Gradient maximum: 0.00331 > 0.00045 => no
2 * Minimization on sphere: Minimization on sphere => no
New geometry (unit Bohr)
   1 B     -9.367051192890  -5.141758586037  -0.055096810085
   2 B      1.940862601770   6.468247942651   0.010634485560
   3 B    -11.942658626109  -1.230054658412   0.082185256192
   4 B     -0.244560430630   2.168094949328  -0.036582700303
   5 B     -2.008759960995  -0.892304205715  -0.094698431885
   6 B     -4.941401028122  10.928172838008   0.124997944053
   7 B     -4.632111169592  -4.940470569305  -0.103339809360
   8 B     -0.266926348634  10.662340184364  -0.007888040350
   9 B     -7.148825581265  -0.903182560431  -0.005567641853
  10 B     -2.815168894519   6.616069137952   0.060384236498
  11 B    -10.127660520671   3.084692898813   0.098576260642
  12 C     -5.518677646869   3.165002720109   0.072700584544
  13 B     -7.760157422173   7.192057566926   0.139128700941
  14 B      4.692881191819   2.675107499231  -0.003190521123
  15 B      0.031580267862  -5.410787022126  -0.134015167293
  16 B      2.512317335573  -1.453890801630  -0.096047023488
  17 B      4.788899432523  -5.556433199004  -0.150786781847
  18 B      7.204465157075  -1.366516798600  -0.073202987636
  19 N     -6.977924868406  -6.316518834659  -0.119451810893
  20 N      1.950840296419   9.186186045169  -0.037021255873
  21 N     -9.465766414214  -2.405604063516   0.011019540098
  22 N     -0.493564562735   5.030752875283   0.012418812577
  23 N    -12.270711494628   1.462698749745   0.118736541927
  24 N     -7.433505292676   9.860146040378   0.169549131332
  25 N     -4.612610057850  -2.114396802978  -0.069100417551
  26 N     -2.680558179780   9.374123974716   0.069112012258
  27 N      4.409129419212   5.337956799260   0.045431813499
  28 N     -2.413523461686  -6.505347171787  -0.130855384516
  29 N     -7.671383371699   1.847933406752   0.047821802677
  30 N     -5.457878945911   5.687784236054   0.099329265197
  31 N    -10.100361205082   5.804860098462   0.143277906376
  32 N      2.386398962107   1.247397180416  -0.043222726682
  33 N      2.380544322242  -6.798360993515  -0.163612783980
  34 N      7.072409632368   1.339098852337  -0.018561226670
  35 N      0.109197332821  -2.699021952284  -0.107298619096
  36 N      4.878706478351  -2.817018066024  -0.118718397245
  37 H     -8.902491713613  11.044124378988   0.189752172459
  38 H    -11.736756501809   6.748025570781   0.174050210939
  39 H    -14.032629935990   2.136833808588   0.156563451912
  40 H    -13.770388345085  -2.543844073898   0.112169726222
  41 H    -11.249386218686  -6.374424147175  -0.057656503229
  42 H     -6.894445436349  -8.202944626049  -0.150952403108
  43 H     -2.632658939619  -8.381054758137  -0.139854083237
  44 H      2.369122753524  -8.689192149976  -0.161760520489
  45 H      6.690977451600  -6.770176349664  -0.142330497958
  46 H      9.208459734486  -2.408140388234  -0.052586765878
  47 H      8.701520355350   2.296242083655   0.030444700561
  48 H      5.917975046264   6.472734294107   0.077319515947
  49 H      3.620699701714  10.066533330887  -0.091210942932
  50 H     -0.141586325891  12.907159357714  -0.067320090874
  51 H     -4.717402186272  13.166017704940   0.117758376875


******** <class 'pyscf.scf.hf.as_scanner.<locals>.SCF_Scanner'> flags ********
method = SCF_Scanner-RHF
initial guess = minao
damping factor = 0
level shift factor = 0
DIIS = <class 'pyscf.scf.diis.CDIIS'>
DIIS start cycle = 1
DIIS space = 8
SCF tol = 1e-09
SCF gradient tol = None
max. SCF cycles = 50
direct_scf = False
chkfile to save SCF result = /tmp/tmpazwqv558
max_memory 24000 MB (current use 1052 MB)
Set gradient conv threshold to 3.16228e-05
init E= -236.671974463
  HOMO = -0.280354656204876  LUMO = 0.101525433136806
cycle= 1 E= -236.680815258554  delta_E= -0.00884  |g|= 0.0178  |ddm|= 0.116
  HOMO = -0.279141762732544  LUMO = 0.102974087942921
cycle= 2 E= -236.681009056068  delta_E= -0.000194  |g|= 0.00638  |ddm|= 0.0278
  HOMO = -0.279283867513116  LUMO = 0.102660178267553
cycle= 3 E= -236.681042334056  delta_E= -3.33e-05  |g|= 0.00198  |ddm|= 0.0158
  HOMO = -0.279251976405528  LUMO = 0.102784759174335
cycle= 4 E= -236.681044189473  delta_E= -1.86e-06  |g|= 0.000744  |ddm|= 0.00305
  HOMO = -0.279232546445308  LUMO = 0.102809331592946
cycle= 5 E= -236.681044826036  delta_E= -6.37e-07  |g|= 0.000278  |ddm|= 0.00258
  HOMO = -0.279238605925976  LUMO = 0.102792051281449
cycle= 6 E= -236.681044928092  delta_E= -1.02e-07  |g|= 0.000147  |ddm|= 0.001
  HOMO = -0.279245220965043  LUMO = 0.10278842466293
cycle= 7 E= -236.681044963506  delta_E= -3.54e-08  |g|= 6.43e-05  |ddm|= 0.000676
  HOMO = -0.279239411258412  LUMO = 0.102794246917698
cycle= 8 E= -236.681044972  delta_E= -8.49e-09  |g|= 2.11e-05  |ddm|= 0.000395
  HOMO = -0.279241287346568  LUMO = 0.102792429429551
cycle= 9 E= -236.681044972825  delta_E= -8.26e-10  |g|= 6.84e-06  |ddm|= 0.000129
  HOMO = -0.279241097803556  LUMO = 0.102792351318638
Extra cycle  E= -236.681044972865  delta_E= -3.96e-11  |g|= 4.03e-06  |ddm|= 1.73e-05
converged SCF energy = -236.681044972865


******** <class 'pyscf.grad.rhf.as_scanner.<locals>.SCF_GradScanner'> for <class 'pyscf.scf.hf.as_scanner.<locals>.SCF_Scanner'> ********
max_memory 24000 MB (current use 18528 MB)
--------------- SCF_Scanner gradients ---------------
         x                y                z
0 B     0.0011152203    -0.0006701179     0.0001447869
1 B     0.0006835358    -0.0004275076     0.0000518436
2 B     0.0016088756    -0.0002869914    -0.0000311212
3 B     0.0012299216     0.0004131887     0.0004463468
4 B     0.0004077633    -0.0021525378    -0.0031539665
5 B     0.0004213138    -0.0004877917     0.0005415572
6 B     0.0009514546    -0.0001908480     0.0006788520
7 B     0.0002808566    -0.0001998997     0.0010011507
8 B     0.0016465991    -0.0007196129     0.0001422969
9 B     0.0016285258    -0.0010837359    -0.0003054203
10 B     0.0007394049    -0.0004463680    -0.0003789414
11 C     0.0001502469    -0.0000419606     0.0000077723
12 B     0.0007637414    -0.0005408536    -0.0000796829
13 B     0.0011829603    -0.0005031077    -0.0002762824
14 B     0.0011697960    -0.0005248962     0.0003304419
15 B     0.0007609962    -0.0003112552    -0.0002773379
16 B     0.0011453157    -0.0004887481    -0.0008931582
17 B     0.0006206416    -0.0002741216    -0.0011881520
18 N     0.0003981798    -0.0007316142    -0.0013174609
19 N     0.0013694134    -0.0009367407    -0.0008401885
20 N     0.0003924387    -0.0003059566     0.0003759492
21 N     0.0008537298    -0.0009961240     0.0000153446
22 N     0.0007600811    -0.0000406169     0.0005715197
23 N     0.0007766969    -0.0004487068     0.0009028976
24 N     0.0001798953    -0.0003836189     0.0006678132
25 N     0.0011104468    -0.0003958631     0.0001259170
26 N     0.0010147661    -0.0005173464     0.0009026609
27 N     0.0008223210    -0.0007335483    -0.0004449397
28 N     0.0009008006    -0.0002814165    -0.0005209318
29 N     0.0006348326    -0.0007291222     0.0007438062
30 N     0.0007081280    -0.0003414379     0.0003283940
31 N     0.0014622677    -0.0006906597     0.0005223582
32 N     0.0005162745    -0.0001087466    -0.0010318091
33 N     0.0010311683    -0.0003666688    -0.0004016067
34 N     0.0005402160     0.0005337093     0.0018446912
35 N     0.0009093503    -0.0003965337     0.0002014115
36 H     0.0010003384    -0.0003787421    -0.0002588662
37 H     0.0009152437    -0.0005126086    -0.0001576637
38 H     0.0007798903    -0.0007156608    -0.0001712476
39 H     0.0003345673    -0.0007518827     0.0001528069
40 H     0.0006895058    -0.0004915672    -0.0001222692
41 H     0.0008688615    -0.0004969375     0.0002123810
42 H     0.0007678186    -0.0005916578     0.0002166716
43 H     0.0008850404    -0.0009237929     0.0003756613
44 H     0.0004680943    -0.0003422358     0.0004900069
45 H     0.0010084171    -0.0006191637     0.0006285430
46 H     0.0008911383    -0.0004971298     0.0002891019
47 H     0.0007098845    -0.0003543478     0.0001543842
48 H     0.0006753194    -0.0002181013    -0.0001546035
49 H     0.0009943627    -0.0006567391    -0.0006355297
50 H     0.0009980680    -0.0004642168    -0.0003409347
----------------------------------------------
3 Energy: -236.681044973
3 Hessian update information:
3 * Change: RMS: 0.000246, max: 0.00689
3 Trust update: Fletcher's parameter: 0.362
3 Linear interpolation:
3 * Energies: -236.68104, -236.68181
3 * Derivatives: 0.000269, 0.00123
3 * Cubic interpolation was performed: t = 0.86
3 * Interpolated energy: -236.6819
3 Minimization on sphere was performed:
3 * Trust radius: 0.075
3 * Number of negative eigenvalues: 0
3 * Lowest eigenvalue: 0.00497
3 * lambda: -0.0503
3 Quadratic step: RMS: 0.00403, max: 0.0128
3 * Predicted energy change: -0.000494
3 Total step: RMS: 0.00209, max: 0.00772
3 Perfect transformation to cartesians in 3 iterations
3 * RMS(dcart): 3.22e-08, RMS(dq): 3.3e-08
3 Convergence criteria:
3 * Gradient RMS: 0.000762 > 0.0003 => no
3 * Gradient maximum: 0.00315 > 0.00045 => no
3 * Minimization on sphere: Minimization on sphere => no
New geometry (unit Bohr)
   1 B     -9.364798270260  -5.141564991184  -0.060370753303
   2 B      1.939076996864   6.469540329206   0.014854644130
   3 B    -11.939749413800  -1.230534876144   0.079478573478
   4 B     -0.249541747189   2.171329285352  -0.034216914538
   5 B     -2.006964621116  -0.891663103655  -0.098202658143
   6 B     -4.942086339856  10.930518404584   0.131700493852
   7 B     -4.629993606397  -4.939690024146  -0.102065272484
   8 B     -0.266258697583  10.664859106643  -0.013291977020
   9 B     -7.146031091872  -0.903440969028  -0.006240073828
  10 B     -2.815466881351   6.620458841778   0.071182385544
  11 B    -10.123384217057   3.083798564607   0.097053254102
  12 C     -5.513942229960   3.165247200438   0.077799645186
  13 B     -7.758677960206   7.192073985383   0.149175411502
  14 B      4.686156114418   2.673371742331  -0.002870685442
  15 B      0.031667248004  -5.413099114292  -0.130481748362
  16 B      2.509609213369  -1.455202307212  -0.098540679655
  17 B      4.788060522448  -5.557811502147  -0.153645149801
  18 B      7.200456672089  -1.367363802203  -0.080109703703
  19 N     -6.975339421669  -6.315026272193  -0.125518076771
  20 N      1.950273906018   9.187075156879  -0.043656504402
  21 N     -9.462888786055  -2.405799794196   0.009142225924
  22 N     -0.495695107130   5.034324332964   0.019166605331
  23 N    -12.266621503075   1.462074046270   0.115282672196
  24 N     -7.433235574300   9.860182411197   0.181392820741
  25 N     -4.609892420066  -2.114100439333  -0.070309625628
  26 N     -2.680529064724   9.378118824463   0.076993792721
  27 N      4.405501547486   5.336180866387   0.051758389218
  28 N     -2.413254484602  -6.506012012982  -0.125750587829
  29 N     -7.666901814010   1.847590619200   0.047334357543
  30 N     -5.456085016431   5.688714165289   0.111500573376
  31 N    -10.097710251346   5.803554030184   0.145463180071
  32 N      2.379601943978   1.246531466478  -0.042245476943
  33 N      2.380522731794  -6.799925256015  -0.162490176353
  34 N      7.065331635168   1.337571688074  -0.024465804134
  35 N      0.108365939452  -2.702136352644  -0.104450793301
  36 N      4.875932405871  -2.818568347089  -0.125388723917
  37 H     -8.903018725789  11.043483490807   0.194868553963
  38 H    -11.734779434687   6.746030552905   0.172377326554
  39 H    -14.028566929849   2.136465627265   0.150538559839
  40 H    -13.767147198489  -2.544468358111   0.108310873481
  41 H    -11.246988698761  -6.374423774082  -0.067858529698
  42 H     -6.891533005687  -8.201428177196  -0.156112188822
  43 H     -2.633356995320  -8.381352391580  -0.132160112667
  44 H      2.369613911583  -8.689812355773  -0.152121896453
  45 H      6.690342842440  -6.771262326082  -0.135970974319
  46 H      9.204936101080  -2.407675668865  -0.052933509579
  47 H      8.693962589204   2.295116451171   0.029024627704
  48 H      5.915671977789   6.469260690399   0.082719656355
  49 H      3.620325388186  10.066498929276  -0.108046140172
  50 H     -0.139137232854  12.909060845270  -0.090020082463
  51 H     -4.718337753122  13.168282307812   0.113848300771


******** <class 'pyscf.scf.hf.as_scanner.<locals>.SCF_Scanner'> flags ********
method = SCF_Scanner-RHF
initial guess = minao
damping factor = 0
level shift factor = 0
DIIS = <class 'pyscf.scf.diis.CDIIS'>
DIIS start cycle = 1
DIIS space = 8
SCF tol = 1e-09
SCF gradient tol = None
max. SCF cycles = 50
direct_scf = False
chkfile to save SCF result = /tmp/tmpazwqv558
max_memory 24000 MB (current use 1056 MB)
Set gradient conv threshold to 3.16228e-05
init E= -236.68565331854
  HOMO = -0.278636572458317  LUMO = 0.103267261749685
cycle= 1 E= -236.681291533895  delta_E= 0.00436  |g|= 0.00297  |ddm|= 0.0226
  HOMO = -0.279437156224153  LUMO = 0.102636098071592
cycle= 2 E= -236.681296433602  delta_E= -4.9e-06  |g|= 0.00113  |ddm|= 0.00556
  HOMO = -0.279252885658982  LUMO = 0.102747779486768
cycle= 3 E= -236.681297173686  delta_E= -7.4e-07  |g|= 0.000588  |ddm|= 0.00237
  HOMO = -0.279292689749735  LUMO = 0.102730076814942
cycle= 4 E= -236.681297312991  delta_E= -1.39e-07  |g|= 0.000105  |ddm|= 0.000961
  HOMO = -0.279320266460578  LUMO = 0.102712213869902
cycle= 5 E= -236.681297322395  delta_E= -9.4e-09  |g|= 3.8e-05  |ddm|= 0.00029
  HOMO = -0.279311541418971  LUMO = 0.102716616894829
cycle= 6 E= -236.681297323494  delta_E= -1.1e-09  |g|= 1.21e-05  |ddm|= 0.000107
  HOMO = -0.279311122443215  LUMO = 0.102717452236673
cycle= 7 E= -236.681297323596  delta_E= -1.01e-10  |g|= 4.23e-06  |ddm|= 3.02e-05
  HOMO = -0.279311807509242  LUMO = 0.102716986152936
Extra cycle  E= -236.681297323611  delta_E= -1.59e-11  |g|= 2.3e-06  |ddm|= 1.03e-05
converged SCF energy = -236.681297323611


******** <class 'pyscf.grad.rhf.as_scanner.<locals>.SCF_GradScanner'> for <class 'pyscf.scf.hf.as_scanner.<locals>.SCF_Scanner'> ********
max_memory 24000 MB (current use 18520 MB)
--------------- SCF_Scanner gradients ---------------
         x                y                z
0 B     0.0010242007    -0.0006862985     0.0003211077
1 B     0.0006457490    -0.0003563175     0.0002029037
2 B     0.0014929184    -0.0003184258     0.0000316617
3 B     0.0008977675     0.0012559374     0.0006127542
4 B     0.0010009150    -0.0016301029    -0.0038921846
5 B     0.0003763973    -0.0005290217     0.0006470133
6 B     0.0009911721    -0.0002547417     0.0009927025
7 B     0.0004185763    -0.0001824539     0.0012982438
8 B     0.0014903494    -0.0006848539     0.0003466965
9 B     0.0015650027    -0.0008250265    -0.0002022599
10 B     0.0008113275    -0.0004259452    -0.0004932011
11 C     0.0009478257    -0.0004994529    -0.0001644316
12 B     0.0007632278    -0.0003917149    -0.0000540680
13 B     0.0009863556    -0.0005311930    -0.0003448413
14 B     0.0011969176    -0.0006617756     0.0003650586
15 B     0.0009327484    -0.0002702631    -0.0004601603
16 B     0.0011593855    -0.0005524548    -0.0013207333
17 B     0.0006112285    -0.0002719715    -0.0015010444
18 N     0.0007517540    -0.0003629429    -0.0018043001
19 N     0.0011745897    -0.0010394275    -0.0010924948
20 N     0.0005017406    -0.0004510154     0.0003218114
21 N     0.0007193226    -0.0004726994    -0.0000623081
22 N     0.0009346163    -0.0000691966     0.0006553576
23 N     0.0008104408    -0.0007103304     0.0012054310
24 N     0.0006168659    -0.0004103030     0.0006957567
25 N     0.0010392997    -0.0002253125     0.0001575851
26 N     0.0009986803    -0.0008248651     0.0010781719
27 N     0.0007152284    -0.0004238200    -0.0005931211
28 N     0.0007848198    -0.0004919573    -0.0007045816
29 N     0.0006732094    -0.0005560648     0.0009926465
30 N     0.0009273939    -0.0006061470     0.0003538630
31 N     0.0004787625    -0.0009022937     0.0007482669
32 N     0.0006133164    -0.0003523317    -0.0012013400
33 N     0.0006304703    -0.0004754775    -0.0006011180
34 N     0.0004958301    -0.0005991525     0.0025838603
35 N     0.0008655942    -0.0006772759     0.0003612956
36 H     0.0009683115    -0.0003216872    -0.0003537645
37 H     0.0008513714    -0.0004340158    -0.0002033340
38 H     0.0007359699    -0.0007448767    -0.0002119886
39 H     0.0003942274    -0.0007546547     0.0001427443
40 H     0.0006849314    -0.0004965932    -0.0001894172
41 H     0.0008589257    -0.0004804585     0.0002860883
42 H     0.0008230645    -0.0004629366     0.0002698168
43 H     0.0009075466    -0.0004279474     0.0004779624
44 H     0.0004616993    -0.0003913986     0.0007069941
45 H     0.0009641726    -0.0006316277     0.0008085336
46 H     0.0008505552    -0.0005727521     0.0003549614
47 H     0.0006967888    -0.0003261249     0.0001472165
48 H     0.0006810715    -0.0001905075    -0.0001795643
49 H     0.0010439148    -0.0006763041    -0.0008245858
50 H     0.0010835875    -0.0004963155    -0.0004591899
----------------------------------------------
4 Energy: -236.681297324
4 Hessian update information:
4 * Change: RMS: 8.31e-05, max: 0.00368
4 Trust update: Fletcher's parameter: 0.511
4 Linear interpolation:
4 * Energies: -236.6813, -236.68181
4 * Derivatives: 0.000358, 0.000964
4 * Cubic interpolation was performed: t = 0.855
4 * Interpolated energy: -236.68188
4 Minimization on sphere was performed:
4 * Trust radius: 0.075
4 * Number of negative eigenvalues: 0
4 * Lowest eigenvalue: 0.00497
4 * lambda: -0.0526
4 Quadratic step: RMS: 0.00403, max: 0.013
4 * Predicted energy change: -0.000513
4 Total step: RMS: 0.000355, max: 0.00147
4 Perfect transformation to cartesians in 2 iterations
4 * RMS(dcart): 5.49e-07, RMS(dq): 3.3e-07
4 Convergence criteria:
4 * Gradient RMS: 0.000825 > 0.0003 => no
4 * Gradient maximum: 0.00389 > 0.00045 => no
4 * Minimization on sphere: Minimization on sphere => no
New geometry (unit Bohr)
   1 B     -9.364768414727  -5.141207083554  -0.061509023332
   2 B      1.938927995112   6.469007252231   0.013515947586
   3 B    -11.940090448661  -1.230493060281   0.082327966840
   4 B     -0.250025367372   2.170696068349  -0.036977751382
   5 B     -2.006827150325  -0.891172462788  -0.102134559264
   6 B     -4.941760233110  10.930107074262   0.131111789735
   7 B     -4.629913199993  -4.939136324437  -0.105381530722
   8 B     -0.266020173103  10.664304987581  -0.016193106160
   9 B     -7.146466929420  -0.903218089995  -0.007558017785
  10 B     -2.815750260403   6.620194804830   0.069380654644
  11 B    -10.123472663183   3.083738727274   0.099287058098
  12 C     -5.514248790768   3.165128122435   0.077021333861
  13 B     -7.758599777752   7.191769187062   0.150333744042
  14 B      4.685672881359   2.673214084517  -0.001721806456
  15 B      0.031603044189  -5.412756736554  -0.132738068447
  16 B      2.509748478605  -1.455274576219  -0.099642535518
  17 B      4.788153947981  -5.557475222889  -0.152849337926
  18 B      7.200686799738  -1.367110946600  -0.076914701331
  19 N     -6.975183751430  -6.314328302693  -0.128449551103
  20 N      1.950243277727   9.186482191845  -0.046309669660
  21 N     -9.463057673164  -2.405578116321   0.009461515812
  22 N     -0.495812490514   5.033934630520   0.017069727349
  23 N    -12.266738740191   1.462018014824   0.119212965290
  24 N     -7.432923048757   9.859777909552   0.182390454885
  25 N     -4.609930241313  -2.113547177014  -0.073455020114
  26 N     -2.680461860711   9.377625096159   0.075284886870
  27 N      4.405242896123   5.335940250071   0.052889581682
  28 N     -2.413250821769  -6.505539167280  -0.129012647606
  29 N     -7.667172060885   1.847580781643   0.047351632295
  30 N     -5.456086498362   5.688481344765   0.111221954251
  31 N    -10.097758305115   5.803431987495   0.148137935814
  32 N      2.379245078832   1.246456976028  -0.043336886432
  33 N      2.380629405966  -6.799351792758  -0.163650268239
  34 N      7.064997225320   1.337681073584  -0.020689721157
  35 N      0.108516569947  -2.702142478390  -0.106860835397
  36 N      4.876217090901  -2.818322264242  -0.124557785147
  37 H     -8.902788417792  11.043031688577   0.196196810354
  38 H    -11.734810743915   6.745968538857   0.176048086386
  39 H    -14.028525404357   2.136793318877   0.155900425360
  40 H    -13.766807560411  -2.544607060489   0.112671680206
  41 H    -11.246609931432  -6.374429259068  -0.067939744040
  42 H     -6.891284745417  -8.200736243368  -0.159005927309
  43 H     -2.633318593091  -8.380834808365  -0.134966527537
  44 H      2.369678053743  -8.689053313431  -0.152361550569
  45 H      6.690570704504  -6.771151002309  -0.132632453760
  46 H      9.205105353777  -2.407091565202  -0.046012965938
  47 H      8.693419596356   2.295456708836   0.035498237261
  48 H      5.915591517117   6.468768183354   0.085297444745
  49 H      3.620486167204  10.065557135435  -0.111042336884
  50 H     -0.139040526078  12.908557865782  -0.094491632314
  51 H     -4.717736068352  13.167804795958   0.112216232017


******** <class 'pyscf.scf.hf.as_scanner.<locals>.SCF_Scanner'> flags ********
method = SCF_Scanner-RHF
initial guess = minao
damping factor = 0
level shift factor = 0
DIIS = <class 'pyscf.scf.diis.CDIIS'>
DIIS start cycle = 1
DIIS space = 8
SCF tol = 1e-09
SCF gradient tol = None
max. SCF cycles = 50
direct_scf = False
chkfile to save SCF result = /tmp/tmpazwqv558
max_memory 24000 MB (current use 1050 MB)
Set gradient conv threshold to 3.16228e-05
init E= -236.682142626697
  HOMO = -0.279214269353938  LUMO = 0.102800493868508
cycle= 1 E= -236.681298855935  delta_E= 0.000844  |g|= 0.000832  |ddm|= 0.00508
  HOMO = -0.279378475306709  LUMO = 0.102662282922731
cycle= 2 E= -236.681299257034  delta_E= -4.01e-07  |g|= 0.000314  |ddm|= 0.00141
  HOMO = -0.279329714025104  LUMO = 0.102695708450584
cycle= 3 E= -236.681299318746  delta_E= -6.17e-08  |g|= 0.000159  |ddm|= 0.000642
  HOMO = -0.279340952872773  LUMO = 0.102691312843458
cycle= 4 E= -236.681299329151  delta_E= -1.04e-08  |g|= 3.41e-05  |ddm|= 0.000241
  HOMO = -0.279350057387713  LUMO = 0.102683857989555
cycle= 5 E= -236.681299330359  delta_E= -1.21e-09  |g|= 1.49e-05  |ddm|= 0.000107
  HOMO = -0.279345671019321  LUMO = 0.102686732633819
cycle= 6 E= -236.681299330631  delta_E= -2.72e-10  |g|= 6.35e-06  |ddm|= 5.55e-05
  HOMO = -0.279346735196606  LUMO = 0.102686379844811
Extra cycle  E= -236.681299330678  delta_E= -4.77e-11  |g|= 4.12e-06  |ddm|= 1.74e-05
converged SCF energy = -236.681299330678


******** <class 'pyscf.grad.rhf.as_scanner.<locals>.SCF_GradScanner'> for <class 'pyscf.scf.hf.as_scanner.<locals>.SCF_Scanner'> ********
max_memory 24000 MB (current use 18509 MB)
--------------- SCF_Scanner gradients ---------------
         x                y                z
0 B     0.0009862241    -0.0006721159     0.0002811675
1 B     0.0006889792    -0.0003899390     0.0001817247
2 B     0.0013459653    -0.0003400768     0.0000126316
3 B     0.0008103631     0.0010539194     0.0006033005
4 B     0.0010684666    -0.0014757983    -0.0040079415
5 B     0.0004059353    -0.0005380231     0.0006825037
6 B     0.0009806899    -0.0002917028     0.0009796267
7 B     0.0005014182    -0.0002211122     0.0013294946
8 B     0.0013577592    -0.0006602053     0.0003055466
9 B     0.0014150735    -0.0007676709    -0.0002643214
10 B     0.0008525184    -0.0004198134    -0.0005000119
11 C     0.0008344252    -0.0004555351    -0.0001642822
12 B     0.0007741406    -0.0004249267    -0.0000686123
13 B     0.0009450182    -0.0005396669    -0.0003765230
14 B     0.0011397272    -0.0006192191     0.0003885070
15 B     0.0009450136    -0.0003103243    -0.0004715440
16 B     0.0010757830    -0.0005142795    -0.0013609097
17 B     0.0006764783    -0.0002831367    -0.0016215783
18 N     0.0008070796    -0.0002901820    -0.0018066402
19 N     0.0011017651    -0.0010464301    -0.0011070378
20 N     0.0005838552    -0.0004466436     0.0003897166
21 N     0.0008361577    -0.0004274097    -0.0000270602
22 N     0.0009676383    -0.0001331786     0.0006925635
23 N     0.0008528133    -0.0007773128     0.0012177379
24 N     0.0006292609    -0.0003979283     0.0007359883
25 N     0.0009762402    -0.0002966579     0.0001683683
26 N     0.0009397389    -0.0008054902     0.0011054997
27 N     0.0007313103    -0.0004069272    -0.0006174797
28 N     0.0008093573    -0.0005401513    -0.0006906575
29 N     0.0007729603    -0.0005462319     0.0010221447
30 N     0.0009325288    -0.0006264435     0.0003781826
31 N     0.0004434585    -0.0008192918     0.0007684567
32 N     0.0006586149    -0.0003797473    -0.0012479124
33 N     0.0005880612    -0.0005009185    -0.0005490742
34 N     0.0005904454    -0.0008104472     0.0026508689
35 N     0.0008799035    -0.0006621924     0.0004352203
36 H     0.0009469581    -0.0003210285    -0.0003620973
37 H     0.0008330136    -0.0004293828    -0.0002113376
38 H     0.0007365549    -0.0007271060    -0.0002204854
39 H     0.0004956075    -0.0007041786     0.0001488277
40 H     0.0007135234    -0.0004897097    -0.0001791694
41 H     0.0008621319    -0.0004829427     0.0002986859
42 H     0.0008358179    -0.0004369437     0.0002805176
43 H     0.0009013135    -0.0003267936     0.0004931903
44 H     0.0005187310    -0.0004218201     0.0007297678
45 H     0.0009298441    -0.0006056738     0.0008575126
46 H     0.0008590241    -0.0005741099     0.0003668912
47 H     0.0007180862    -0.0003330102     0.0001516926
48 H     0.0006978048    -0.0001988454    -0.0001755375
49 H     0.0010409657    -0.0006500760    -0.0008425743
50 H     0.0010987040    -0.0005054925    -0.0004769086
----------------------------------------------
5 Energy: -236.681299331
5 Hessian update information:
5 * Change: RMS: 4.21e-05, max: 0.00213
5 Trust update: Fletcher's parameter: 0.00391
5 Linear interpolation:
5 * Energies: -236.6813, -236.68181
5 * Derivatives: 0.000349, 0.000944
5 * Cubic interpolation was performed: t = 0.856
5 * Interpolated energy: -236.68188
5 Minimization on sphere was performed:
5 * Trust radius: 0.019
5 * Number of negative eigenvalues: 0
5 * Lowest eigenvalue: 0.00497
5 * lambda: -0.457
5 Quadratic step: RMS: 0.00101, max: 0.00446
5 * Predicted energy change: -0.000201
5 Total step: RMS: 0.00324, max: 0.0112
5 Perfect transformation to cartesians in 3 iterations
5 * RMS(dcart): 1.66e-07, RMS(dq): 1.59e-07
5 Convergence criteria:
5 * Gradient RMS: 0.000827 > 0.0003 => no
5 * Gradient maximum: 0.00401 > 0.00045 => no
5 * Minimization on sphere: Minimization on sphere => no
New geometry (unit Bohr)
   1 B     -9.360932651140  -5.142325355030  -0.079116612927
   2 B      1.936726361190   6.469421441183   0.009193298062
   3 B    -11.933013865192  -1.231546355669   0.085917185832
   4 B     -0.255951277358   2.177924563415  -0.040625999494
   5 B     -2.004431427118  -0.893512061718  -0.116436825194
   6 B     -4.942197632978  10.930317691823   0.139611076955
   7 B     -4.627093943032  -4.936725904546  -0.117694610031
   8 B     -0.266513924594  10.665439276722  -0.036445240275
   9 B     -7.140180704077  -0.904204733381  -0.013030006498
  10 B     -2.812820135494   6.622613786816   0.076999808419
  11 B    -10.118769521358   3.083184049376   0.108545934746
  12 C     -5.510026395907   3.166154701786   0.082700516614
  13 B     -7.757075949622   7.192106692902   0.171751430701
  14 B      4.678710327874   2.671236627698   0.000669460679
  15 B      0.031715198032  -5.413931114749  -0.132298749552
  16 B      2.505259832339  -1.455286792464  -0.100661268709
  17 B      4.784103537127  -5.556523810661  -0.146036113732
  18 B      7.193574514224  -1.367272279270  -0.070625276421
  19 N     -6.971352409459  -6.312374443656  -0.152743220900
  20 N      1.949014447115   9.185420713968  -0.070708404012
  21 N     -9.457944099145  -2.406567729989   0.004304342791
  22 N     -0.497128627635   5.038277130404   0.018136218611
  23 N    -12.261203250618   1.460613533536   0.130233129054
  24 N     -7.432270115041   9.859998394233   0.205174709988
  25 N     -4.606795537306  -2.113551116684  -0.084848492623
  26 N     -2.679997350748   9.380162870892   0.076966834351
  27 N      4.401013233057   5.333664839389   0.055858775150
  28 N     -2.413121756553  -6.504547066366  -0.136599930397
  29 N     -7.662138650347   1.846870000885   0.048511861027
  30 N     -5.453509161103   5.689562781613   0.127624912254
  31 N    -10.094535202642   5.802016345737   0.166516579523
  32 N      2.370944052607   1.246660692814  -0.043898476065
  33 N      2.378615854322  -6.797861765817  -0.159600215495
  34 N      7.056083403986   1.335635780425  -0.014734812671
  35 N      0.107118623430  -2.705363228963  -0.106440434078
  36 N      4.871425387726  -2.818665859821  -0.121630513996
  37 H     -8.899975245410  11.046393989478   0.214130300404
  38 H    -11.732121460609   6.744227749298   0.195307393930
  39 H    -14.025513678191   2.128848574544   0.170341736687
  40 H    -13.762562634526  -2.547827556391   0.117568159892
  41 H    -11.244274706785  -6.375056435296  -0.090358648064
  42 H     -6.885713260077  -8.198661122005  -0.184763990876
  43 H     -2.634957633942  -8.379167601487  -0.141275166633
  44 H      2.369616410909  -8.686055362777  -0.138309172616
  45 H      6.682322426310  -6.771314557841  -0.106632321688
  46 H      9.198540921775  -2.407995854400  -0.019489931026
  47 H      8.684669384856   2.292180700702   0.052002630219
  48 H      5.909809807909   6.468397946238   0.087801161557
  49 H      3.615899468171  10.069727089212  -0.151009322451
  50 H     -0.132383363669  12.907096739938  -0.141495046827
  51 H     -4.711162428653  13.167135150411   0.103073449659


******** <class 'pyscf.scf.hf.as_scanner.<locals>.SCF_Scanner'> flags ********
method = SCF_Scanner-RHF
initial guess = minao
damping factor = 0
level shift factor = 0
DIIS = <class 'pyscf.scf.diis.CDIIS'>
DIIS start cycle = 1
DIIS space = 8
SCF tol = 1e-09
SCF gradient tol = None
max. SCF cycles = 50
direct_scf = False
chkfile to save SCF result = /tmp/tmpazwqv558
max_memory 24000 MB (current use 1046 MB)
Set gradient conv threshold to 3.16228e-05
init E= -236.693137226255
  HOMO = -0.277677710909452  LUMO = 0.104153167784482
cycle= 1 E= -236.681370488211  delta_E= 0.0118  |g|= 0.0062  |ddm|= 0.0381
  HOMO = -0.279107853792658  LUMO = 0.102586656936082
cycle= 2 E= -236.681387740596  delta_E= -1.73e-05  |g|= 0.00296  |ddm|= 0.0125
  HOMO = -0.278971597739541  LUMO = 0.102814045861183
cycle= 3 E= -236.681390703527  delta_E= -2.96e-06  |g|= 0.00117  |ddm|= 0.00377
  HOMO = -0.278952431568125  LUMO = 0.10284374997488
cycle= 4 E= -236.681391536838  delta_E= -8.33e-07  |g|= 0.000239  |ddm|= 0.00247
  HOMO = -0.278969137284248  LUMO = 0.102812639307209
cycle= 5 E= -236.681391583509  delta_E= -4.67e-08  |g|= 0.000103  |ddm|= 0.000596
  HOMO = -0.278973914237696  LUMO = 0.102810243091815
cycle= 6 E= -236.681391593775  delta_E= -1.03e-08  |g|= 4.06e-05  |ddm|= 0.000318
  HOMO = -0.278969914292816  LUMO = 0.102813700464003
cycle= 7 E= -236.681391595588  delta_E= -1.81e-09  |g|= 1.79e-05  |ddm|= 0.000133
  HOMO = -0.27897037682925  LUMO = 0.102813688708324
cycle= 8 E= -236.681391596149  delta_E= -5.6e-10  |g|= 7.78e-06  |ddm|= 8.71e-05
  HOMO = -0.278970405600773  LUMO = 0.102813419050075
Extra cycle  E= -236.681391596222  delta_E= -7.32e-11  |g|= 5.14e-06  |ddm|= 2.13e-05
converged SCF energy = -236.681391596222


******** <class 'pyscf.grad.rhf.as_scanner.<locals>.SCF_GradScanner'> for <class 'pyscf.scf.hf.as_scanner.<locals>.SCF_Scanner'> ********
max_memory 24000 MB (current use 18517 MB)
--------------- SCF_Scanner gradients ---------------
         x                y                z
0 B     0.0013921451    -0.0010000311     0.0003326121
1 B     0.0000477108    -0.0005789566     0.0004121545
2 B     0.0023617396     0.0001618640    -0.0000203464
3 B     0.0003968869     0.0034972953     0.0009707451
4 B     0.0018969980    -0.0022769244    -0.0052936191
5 B    -0.0002155328    -0.0007657849     0.0011344260
6 B     0.0013063042     0.0001504617     0.0013814964
7 B     0.0001973769     0.0002701804     0.0019490626
8 B     0.0023381466    -0.0010175604     0.0004439771
9 B     0.0027780816    -0.0012656588    -0.0002734458
10 B     0.0009624467    -0.0000942202    -0.0006658916
11 C     0.0011604043    -0.0005524880    -0.0003402920
12 B     0.0005322195    -0.0001636035    -0.0000011704
13 B     0.0011339272    -0.0007611543    -0.0005359537
14 B     0.0018493954    -0.0006590567     0.0005734524
15 B     0.0010059477    -0.0003641165    -0.0007574015
16 B     0.0011543216    -0.0007294844    -0.0020547772
17 B    -0.0000054052     0.0002712439    -0.0025231186
18 N     0.0008828919     0.0003392368    -0.0023929193
19 N     0.0012574821    -0.0019302383    -0.0016112213
20 N     0.0000851053    -0.0003833084     0.0004984203
21 N     0.0007527520     0.0003564844    -0.0000539183
22 N     0.0012360847     0.0002171092     0.0009240487
23 N     0.0009354602    -0.0013599015     0.0014937082
24 N     0.0004489490    -0.0004322096     0.0009302817
25 N     0.0009189030     0.0000949625    -0.0001369481
26 N     0.0010397779    -0.0013859692     0.0012332713
27 N     0.0004126935    -0.0000260974    -0.0010110230
28 N     0.0007852423    -0.0007619539    -0.0009418993
29 N     0.0007172161    -0.0007054242     0.0013152640
30 N     0.0012174046    -0.0010996673     0.0005052857
31 N    -0.0007852242    -0.0011616549     0.0009349688
32 N     0.0004225644    -0.0000177705    -0.0014241201
33 N    -0.0002478892    -0.0008136175    -0.0004599647
34 N     0.0003088760    -0.0022655160     0.0037030595
35 N     0.0011525490    -0.0011199101     0.0011291010
36 H     0.0010197176    -0.0000211590    -0.0005018232
37 H     0.0007315473    -0.0002722345    -0.0002830685
38 H     0.0005402920    -0.0010481778    -0.0002848699
39 H    -0.0002357503    -0.0012773314     0.0001756864
40 H     0.0004257321    -0.0005979829    -0.0002101565
41 H     0.0008632962    -0.0004718360     0.0004219868
42 H     0.0008678430    -0.0002085953     0.0003630703
43 H     0.0009793394     0.0004360387     0.0006110484
44 H    -0.0002119343    -0.0001791543     0.0010494587
45 H     0.0011316720    -0.0008090283     0.0012548288
46 H     0.0008392998    -0.0007232884     0.0004615955
47 H     0.0005181775    -0.0001398835     0.0001514069
48 H     0.0004940504     0.0002323415    -0.0001885829
49 H     0.0013180641    -0.0010119169    -0.0011476859
50 H     0.0015244240    -0.0005708801    -0.0007352236
----------------------------------------------
6 Energy: -236.681391596
6 Hessian update information:
6 * Change: RMS: 0.000127, max: 0.00331
6 Trust update: Fletcher's parameter: 0.46
6 Linear interpolation:
6 * Energies: -236.68139, -236.68181
6 * Derivatives: 0.000252, 0.000406
6 * Cubic interpolation was performed: t = 0.904
6 * Interpolated energy: -236.68183
6 Minimization on sphere was performed:
6 * Trust radius: 0.019
6 * Number of negative eigenvalues: 0
6 * Lowest eigenvalue: 0.00497
6 * lambda: -0.501
6 Quadratic step: RMS: 0.00101, max: 0.00457
6 * Predicted energy change: -0.000218
6 Total step: RMS: 0.000549, max: 0.00188
6 Perfect transformation to cartesians in 2 iterations
6 * RMS(dcart): 6.26e-07, RMS(dq): 4.87e-07
6 Convergence criteria:
6 * Gradient RMS: 0.00114 > 0.0003 => no
6 * Gradient maximum: 0.00529 > 0.00045 => no
6 * Minimization on sphere: Minimization on sphere => no
New geometry (unit Bohr)
   1 B     -9.360280160820  -5.142634012163  -0.081973140429
   2 B      1.936369902530   6.469681362736   0.008520726232
   3 B    -11.931718452320  -1.231821692637   0.086548733812
   4 B     -0.257182416376   2.179483630691  -0.041257938300
   5 B     -2.004034567015  -0.893824072932  -0.118855793962
   6 B     -4.942357928199  10.930509155790   0.141004358707
   7 B     -4.626630197272  -4.936312986389  -0.119720285983
   8 B     -0.266590408462  10.665870704088  -0.039785802661
   9 B     -7.139035992276  -0.904499027718  -0.013944549480
  10 B     -2.812258550322   6.623316879282   0.078247285246
  11 B    -10.117676254596   3.082946313067   0.110046498351
  12 C     -5.508759557183   3.166142308948   0.083615747647
  13 B     -7.756626362047   7.192070831968   0.175253601905
  14 B      4.677336051479   2.670896904503   0.001100277044
  15 B      0.031637515067  -5.414158922556  -0.132271078043
  16 B      2.504353450477  -1.455208228364  -0.100887008946
  17 B      4.783296374545  -5.556433562190  -0.144977039632
  18 B      7.192188362680  -1.367390683565  -0.069597786616
  19 N     -6.970672245173  -6.312082366417  -0.156713365169
  20 N      1.948820781529   9.185404841688  -0.074701146354
  21 N     -9.457020039987  -2.406861485549   0.003484781630
  22 N     -0.497383949773   5.039290811873   0.018309076009
  23 N    -12.260025319331   1.460296996272   0.132051905514
  24 N     -7.432128124128   9.859977927130   0.208912706284
  25 N     -4.606220835054  -2.113590849471  -0.086754911389
  26 N     -2.679894058108   9.380878147287   0.077254665513
  27 N      4.400224700302   5.333275715303   0.056449389804
  28 N     -2.413161978786  -6.504380100683  -0.137842326594
  29 N     -7.660952545940   1.846647885383   0.048679216674
  30 N     -5.452846678868   5.689712301598   0.130314620299
  31 N    -10.093710180964   5.801604911819   0.169503652750
  32 N      2.369303225991   1.246776804988  -0.044010667430
  33 N      2.378136801180  -6.797694291669  -0.158994218809
  34 N      7.054324881063   1.335190247912  -0.013721859939
  35 N      0.106731939459  -2.705888331681  -0.106434974114
  36 N      4.870424482381  -2.818786065806  -0.121217470726
  37 H     -8.899516956777  11.046853814572   0.217048230884
  38 H    -11.731413401763   6.743733162992   0.198428120571
  39 H    -14.024778146803   2.127382420152   0.172718618292
  40 H    -13.761797860442  -2.548389518029   0.118456768208
  41 H    -11.243879470922  -6.375263564556  -0.093983841828
  42 H     -6.884686855635  -8.198346984211  -0.188954480864
  43 H     -2.635323814554  -8.378872917354  -0.142271103004
  44 H      2.369478097109  -8.685580979757  -0.136014807631
  45 H      6.680778546525  -6.771433236938  -0.102394544396
  46 H      9.197218074114  -2.408249061114  -0.015097700001
  47 H      8.682939633619   2.291491710884   0.054816967460
  48 H      5.908772116099   6.468301868640   0.088366265122
  49 H      3.615078402323  10.070682214152  -0.157582899867
  50 H     -0.131129745625  12.907060588841  -0.149290420027
  51 H     -4.710225090322  13.167174225650   0.101551052084


******** <class 'pyscf.scf.hf.as_scanner.<locals>.SCF_Scanner'> flags ********
method = SCF_Scanner-RHF
initial guess = minao
damping factor = 0
level shift factor = 0
DIIS = <class 'pyscf.scf.diis.CDIIS'>
DIIS start cycle = 1
DIIS space = 8
SCF tol = 1e-09
SCF gradient tol = None
max. SCF cycles = 50
direct_scf = False
chkfile to save SCF result = /tmp/tmpazwqv558
max_memory 24000 MB (current use 1059 MB)
Set gradient conv threshold to 3.16228e-05
init E= -236.683444137567
  HOMO = -0.278689799647916  LUMO = 0.10306492828596
cycle= 1 E= -236.681423921391  delta_E= 0.00202  |g|= 0.00107  |ddm|= 0.00664
  HOMO = -0.278953265835588  LUMO = 0.102792912645108
cycle= 2 E= -236.681424416883  delta_E= -4.95e-07  |g|= 0.000526  |ddm|= 0.00221
  HOMO = -0.278926578744842  LUMO = 0.102828837607159
cycle= 3 E= -236.681424505768  delta_E= -8.89e-08  |g|= 0.000196  |ddm|= 0.000655
  HOMO = -0.278921871340198  LUMO = 0.102834586658319
cycle= 4 E= -236.681424529831  delta_E= -2.41e-08  |g|= 4.08e-05  |ddm|= 0.00043
  HOMO = -0.278925461235263  LUMO = 0.102829656290485
cycle= 5 E= -236.681424531191  delta_E= -1.36e-09  |g|= 1.74e-05  |ddm|= 0.000103
  HOMO = -0.278926251023668  LUMO = 0.102829170861165
cycle= 6 E= -236.681424531491  delta_E= -3e-10  |g|= 6.89e-06  |ddm|= 5.47e-05
  HOMO = -0.278925452953088  LUMO = 0.102829783284088
Extra cycle  E= -236.681424531535  delta_E= -4.34e-11  |g|= 4.16e-06  |ddm|= 1.68e-05
converged SCF energy = -236.681424531535


******** <class 'pyscf.grad.rhf.as_scanner.<locals>.SCF_GradScanner'> for <class 'pyscf.scf.hf.as_scanner.<locals>.SCF_Scanner'> ********
max_memory 24000 MB (current use 18518 MB)
--------------- SCF_Scanner gradients ---------------
         x                y                z
0 B     0.0014521376    -0.0010614567     0.0003407433
1 B    -0.0000608530    -0.0005965970     0.0004499274
2 B     0.0025268490     0.0002382076    -0.0000261588
3 B     0.0002891750     0.0039843613     0.0010331975
4 B     0.0020535865    -0.0024012880    -0.0055056795
5 B    -0.0003366921    -0.0008004791     0.0012089201
6 B     0.0013545245     0.0002285628     0.0014479267
7 B     0.0001321760     0.0003620444     0.0020502982
8 B     0.0024999033    -0.0010826797     0.0004660355
9 B     0.0030113592    -0.0013375733    -0.0002771823
10 B     0.0009679470    -0.0000483758    -0.0006935467
11 C     0.0013839446    -0.0006647512    -0.0003726662
12 B     0.0004919050    -0.0001027054     0.0000097067
13 B     0.0011643024    -0.0007913076    -0.0005624282
14 B     0.0019670361    -0.0006845331     0.0006037546
15 B     0.0010361605    -0.0003489625    -0.0008042256
16 B     0.0011867203    -0.0007687666    -0.0021683168
17 B    -0.0001110024     0.0003619901    -0.0026719965
18 N     0.0009085531     0.0004557740    -0.0024888236
19 N     0.0012912376    -0.0020982989    -0.0016930081
20 N    -0.0000021441    -0.0003864371     0.0005174397
21 N     0.0007187869     0.0004936196    -0.0000565718
22 N     0.0012824236     0.0002877375     0.0009628243
23 N     0.0009498741    -0.0014642032     0.0015411531
24 N     0.0004332985    -0.0004383701     0.0009631438
25 N     0.0009284977     0.0001737736    -0.0001850784
26 N     0.0010632156    -0.0015125407     0.0012561624
27 N     0.0003599737     0.0000509573    -0.0010752135
28 N     0.0007303323    -0.0008101329    -0.0009847980
29 N     0.0006877256    -0.0006785406     0.0013660914
30 N     0.0012919478    -0.0011978943     0.0005254537
31 N    -0.0010115447    -0.0012369321     0.0009621263
32 N     0.0003665032     0.0000013983    -0.0014538310
33 N    -0.0004015083    -0.0008707932    -0.0004472133
34 N     0.0002159416    -0.0025111794     0.0038778866
35 N     0.0011931447    -0.0012115825     0.0012417986
36 H     0.0010333719     0.0000371123    -0.0005253223
37 H     0.0007116621    -0.0002427884    -0.0002949154
38 H     0.0005026447    -0.0011117863    -0.0002957419
39 H    -0.0003580603    -0.0013729047     0.0001803549
40 H     0.0003775856    -0.0006150361    -0.0002154241
41 H     0.0008621825    -0.0004702705     0.0004426515
42 H     0.0008725492    -0.0001646814     0.0003769530
43 H     0.0009958465     0.0005899006     0.0006301394
44 H    -0.0003369472    -0.0001414182     0.0011013512
45 H     0.0011628393    -0.0008450713     0.0013209938
46 H     0.0008304038    -0.0007538735     0.0004773705
47 H     0.0004774034    -0.0001055503     0.0001514724
48 H     0.0004545481     0.0003113396    -0.0001915415
49 H     0.0013688008    -0.0010721068    -0.0011980219
50 H     0.0015998892    -0.0005826168    -0.0007781257
----------------------------------------------
7 Energy: -236.681424532
7 Hessian update information:
7 * Change: RMS: 4.17e-05, max: 0.00109
7 Trust update: Fletcher's parameter: 0.151
7 Linear interpolation:
7 * Energies: -236.68142, -236.68181
7 * Derivatives: 0.000203, 0.000311
7 * Cubic interpolation was performed: t = 0.915
7 * Interpolated energy: -236.68183
7 Minimization on sphere was performed:
7 * Trust radius: 0.0047
7 * Number of negative eigenvalues: 0
7 * Lowest eigenvalue: 0.00497
7 * lambda: -2.77
7 Quadratic step: RMS: 0.000252, max: 0.00129
7 * Predicted energy change: -6.42e-05
7 Total step: RMS: 0.000816, max: 0.00344
7 Perfect transformation to cartesians in 3 iterations
7 * RMS(dcart): 1.31e-09, RMS(dq): 1.22e-09
7 Convergence criteria:
7 * Gradient RMS: 0.00121 > 0.0003 => no
7 * Gradient maximum: 0.00551 > 0.00045 => no
7 * Minimization on sphere: Minimization on sphere => no
New geometry (unit Bohr)
   1 B     -9.356998678762  -5.143474358943  -0.085113749723
   2 B      1.934614682976   6.470023763123   0.007459249838
   3 B    -11.926940395987  -1.232970311213   0.087100846479
   4 B     -0.261041091772   2.184227956565  -0.041878480385
   5 B     -2.003556121298  -0.894118347056  -0.121187819878
   6 B     -4.942223749444  10.930587061968   0.142423652794
   7 B     -4.624537062955  -4.934356080582  -0.121980292828
   8 B     -0.266182632368  10.667029908871  -0.043146747854
   9 B     -7.134791030762  -0.905477972152  -0.014989566816
  10 B     -2.810098175613   6.625233105632   0.079214483560
  11 B    -10.113485823359   3.081941174057   0.111771724821
  12 C     -5.504225993809   3.165876569057   0.084320771949
  13 B     -7.754739975676   7.191469598005   0.178839032718
  14 B      4.671977130419   2.669501573815   0.001322340542
  15 B      0.031047091539  -5.413619977250  -0.132136598330
  16 B      2.500350407819  -1.455180031409  -0.100796288147
  17 B      4.779394235927  -5.555491837701  -0.143355345675
  18 B      7.186077695323  -1.367758609469  -0.068189206929
  19 N     -6.967398350337  -6.310598972194  -0.160914461035
  20 N      1.948440305407   9.184979862456  -0.078884967442
  21 N     -9.453454155191  -2.407772873016   0.002479216815
  22 N     -0.498467206565   5.042546034642   0.018272881891
  23 N    -12.255497182315   1.458956336615   0.134094960030
  24 N     -7.431186737090   9.859270597930   0.212707206000
  25 N     -4.604139399844  -2.113470774450  -0.088733827620
  26 N     -2.679180423434   9.382708099083   0.077300791775
  27 N      4.397028671030   5.331499897240   0.056344294850
  28 N     -2.413029542745  -6.502581273962  -0.139399184133
  29 N     -7.656513495377   1.845671555936   0.048839792481
  30 N     -5.450182316367   5.689902694317   0.132812787669
  31 N    -10.090547246543   5.799897800750   0.172815241552
  32 N      2.363350453497   1.247300907191  -0.044122127977
  33 N      2.375695447919  -6.795620048248  -0.157999742869
  34 N      7.047204467861   1.333364905045  -0.012584329864
  35 N      0.105000836184  -2.707108758317  -0.106261220749
  36 N      4.866121722418  -2.818968903826  -0.120170961762
  37 H     -8.898225688006  11.046997373861   0.220257585297
  38 H    -11.728793829822   6.741722810951   0.202093093841
  39 H    -14.021204776489   2.123785612956   0.175491274649
  40 H    -13.758799920800  -2.550930259411   0.119189294571
  41 H    -11.241050725944  -6.376630035845  -0.097836229334
  42 H     -6.880217305311  -8.196776898077  -0.193455036183
  43 H     -2.635854761018  -8.376519848173  -0.143775094254
  44 H      2.367535483207  -8.681948335237  -0.133621360698
  45 H      6.674640210965  -6.770653531100  -0.097648547932
  46 H      9.191773618106  -2.408744096907  -0.010234346045
  47 H      8.675955786773   2.289004144187   0.057514482333
  48 H      5.905520271681   6.466483522019   0.088007840208
  49 H      3.613910031959  10.071650047756  -0.164205802556
  50 H     -0.127517249939  12.907096814178  -0.156758724834
  51 H     -4.708062313439  13.166994152786   0.100139319041


******** <class 'pyscf.scf.hf.as_scanner.<locals>.SCF_Scanner'> flags ********
method = SCF_Scanner-RHF
initial guess = minao
damping factor = 0
level shift factor = 0
DIIS = <class 'pyscf.scf.diis.CDIIS'>
DIIS start cycle = 1
DIIS space = 8
SCF tol = 1e-09
SCF gradient tol = None
max. SCF cycles = 50
direct_scf = False
chkfile to save SCF result = /tmp/tmpazwqv558
max_memory 24000 MB (current use 1071 MB)
Set gradient conv threshold to 3.16228e-05
init E= -236.692706332167
  HOMO = -0.277413685266567  LUMO = 0.104173240170066
cycle= 1 E= -236.681667364583  delta_E= 0.011  |g|= 0.00316  |ddm|= 0.0161
  HOMO = -0.278909858824224  LUMO = 0.102651309635486
cycle= 2 E= -236.681670119825  delta_E= -2.76e-06  |g|= 0.00174  |ddm|= 0.00772
  HOMO = -0.278772068628176  LUMO = 0.102821406305239
cycle= 3 E= -236.68167082569  delta_E= -7.06e-07  |g|= 0.000279  |ddm|= 0.00178
  HOMO = -0.27873136693581  LUMO = 0.102871716139237
cycle= 4 E= -236.681670867997  delta_E= -4.23e-08  |g|= 9.39e-05  |ddm|= 0.00064
  HOMO = -0.278738117243998  LUMO = 0.102863855422152
cycle= 5 E= -236.681670873866  delta_E= -5.87e-09  |g|= 3.17e-05  |ddm|= 0.000252
  HOMO = -0.278741054372429  LUMO = 0.102860735895119
cycle= 6 E= -236.681670874642  delta_E= -7.76e-10  |g|= 1.3e-05  |ddm|= 8.09e-05
  HOMO = -0.27873989787868  LUMO = 0.102861499710992
Extra cycle  E= -236.681670874787  delta_E= -1.45e-10  |g|= 7.33e-06  |ddm|= 3.14e-05
converged SCF energy = -236.681670874787


******** <class 'pyscf.grad.rhf.as_scanner.<locals>.SCF_GradScanner'> for <class 'pyscf.scf.hf.as_scanner.<locals>.SCF_Scanner'> ********
max_memory 24000 MB (current use 18531 MB)
--------------- SCF_Scanner gradients ---------------
         x                y                z
0 B     0.0018013813    -0.0011911033     0.0003350333
1 B    -0.0005083927    -0.0007260732     0.0004929157
2 B     0.0031961131     0.0005145671    -0.0000463735
3 B     0.0001461757     0.0054139266     0.0011258583
4 B     0.0023219484    -0.0027433201    -0.0056981044
5 B    -0.0005480120    -0.0009606156     0.0012954366
6 B     0.0015607484     0.0004463747     0.0015110961
7 B     0.0000016462     0.0006003161     0.0021490164
8 B     0.0031358303    -0.0013149848     0.0004722158
9 B     0.0038707730    -0.0016447738    -0.0002976413
10 B     0.0009869577     0.0001898795    -0.0007154054
11 C     0.0020306318    -0.0010110322    -0.0004225401
12 B     0.0003061356     0.0000585963     0.0000277076
13 B     0.0012514710    -0.0009303977    -0.0005923026
14 B     0.0023576056    -0.0007027881     0.0006376334
15 B     0.0009423910    -0.0005917030    -0.0008544673
16 B     0.0010967837    -0.0009298235    -0.0022768405
17 B    -0.0006813013     0.0007038169    -0.0028356803
18 N     0.0010302431     0.0009815640    -0.0025560885
19 N     0.0012659443    -0.0026031658    -0.0017677850
20 N    -0.0003502931    -0.0003918611     0.0005453461
21 N     0.0004772552     0.0011797623    -0.0000430340
22 N     0.0014897518     0.0003597566     0.0009975801
23 N     0.0011168754    -0.0018167189     0.0015720172
24 N     0.0004109113    -0.0005254338     0.0010010206
25 N     0.0009032377     0.0003879708    -0.0002507419
26 N     0.0010395575    -0.0019370422     0.0012579683
27 N     0.0002011546     0.0004841317    -0.0011424697
28 N     0.0006259007    -0.0010147230    -0.0010263500
29 N     0.0007080932    -0.0005719865     0.0014159171
30 N     0.0016521808    -0.0015823089     0.0005377237
31 N    -0.0017087709    -0.0011496578     0.0009740835
32 N     0.0002276001     0.0000484599    -0.0014512620
33 N    -0.0010356653    -0.0011912465    -0.0004237463
34 N     0.0001727272    -0.0035336361     0.0040326669
35 N     0.0014907558    -0.0015335650     0.0013825921
36 H     0.0009939594     0.0002037982    -0.0005473422
37 H     0.0005834943    -0.0001238535    -0.0003034600
38 H     0.0003932434    -0.0012223109    -0.0003047417
39 H    -0.0008129503    -0.0017441358     0.0001901112
40 H     0.0002069036    -0.0007084112    -0.0002181989
41 H     0.0008534187    -0.0004591407     0.0004637795
42 H     0.0009135117     0.0000712394     0.0003903951
43 H     0.0010319389     0.0014155863     0.0006390833
44 H    -0.0007831846     0.0000515209     0.0011450634
45 H     0.0012945206    -0.0009588247     0.0013912758
46 H     0.0007744179    -0.0008484941     0.0004890006
47 H     0.0003902109    -0.0000503040     0.0001510843
48 H     0.0004001648     0.0004756586    -0.0001960095
49 H     0.0014644098    -0.0012882080    -0.0012411139
50 H     0.0017631039    -0.0006180889    -0.0008247435
----------------------------------------------
8 Energy: -236.681670875
8 Hessian update information:
8 * Change: RMS: 6.12e-05, max: 0.00187
8 Trust update: Fletcher's parameter: 3.83
8 Linear interpolation:
8 * Energies: -236.68167, -236.68181
8 * Derivatives: 8.43e-05, 9.62e-05
8 * Cubic interpolation was performed: t = 0.926
8 * Interpolated energy: -236.68182
8 Minimization on sphere was performed:
8 * Trust radius: 0.0094
8 * Number of negative eigenvalues: 0
8 * Lowest eigenvalue: 0.00497
8 * lambda: -1.28
8 Quadratic step: RMS: 0.000503, max: 0.00252
8 * Predicted energy change: -0.000125
8 Total step: RMS: 0.00018, max: 0.000918
8 Perfect transformation to cartesians in 2 iterations
8 * RMS(dcart): 5.01e-08, RMS(dq): 3.08e-08
8 Convergence criteria:
8 * Gradient RMS: 0.0014 > 0.0003 => no
8 * Gradient maximum: 0.0057 > 0.00045 => no
8 * Minimization on sphere: Minimization on sphere => no
New geometry (unit Bohr)
   1 B     -9.357939434205  -5.143286290840  -0.084612446970
   2 B      1.935116308458   6.469971509966   0.007644796949
   3 B    -11.928190551769  -1.232639537897   0.087026611455
   4 B     -0.260066577735   2.183094372238  -0.041789266152
   5 B     -2.003568313156  -0.894182177601  -0.120839787415
[...]
  HOMO = -0.278675041940483  LUMO = 0.1028631770102
Extra cycle  E= -236.681813247461  delta_E= -2.27e-12  |g|= 3.52e-07  |ddm|= 8.1e-07
converged SCF energy = -236.681813247461


******** <class 'pyscf.grad.rhf.as_scanner.<locals>.SCF_GradScanner'> for <class 'pyscf.scf.hf.as_scanner.<locals>.SCF_Scanner'> ********
max_memory 24000 MB (current use 18566 MB)
--------------- SCF_Scanner gradients ---------------
         x                y                z
0 B     0.0019899574    -0.0012355227     0.0003315280
1 B    -0.0007292292    -0.0007881841     0.0005072594
2 B     0.0035094448     0.0006361101    -0.0000554736
3 B     0.0000925551     0.0060405706     0.0011621353
4 B     0.0023959501    -0.0028726649    -0.0057555904
5 B    -0.0006179550    -0.0010385251     0.0013240722
6 B     0.0016616800     0.0005308177     0.0015312823
7 B    -0.0000456521     0.0006964499     0.0021798922
8 B     0.0034387863    -0.0014201600     0.0004722025
9 B     0.0042662274    -0.0017948092    -0.0003073046
10 B     0.0009916179     0.0003089462    -0.0007220389
11 C     0.0024525879    -0.0012482463    -0.0004424553
12 B     0.0002145024     0.0001337536     0.0000341363
13 B     0.0012768829    -0.0009978286    -0.0006026484
14 B     0.0025163326    -0.0007064610     0.0006489470
15 B     0.0008668292    -0.0007522065    -0.0008711882
16 B     0.0010156704    -0.0010013413    -0.0023104605
17 B    -0.0009777202     0.0008619682    -0.0028898718
18 N     0.0010998868     0.0012614171    -0.0025719137
19 N     0.0012249460    -0.0028328901    -0.0017891170
20 N    -0.0005132408    -0.0004087730     0.0005551380
21 N     0.0003299256     0.0015464877    -0.0000346668
22 N     0.0015912681     0.0003637006     0.0010077472
23 N     0.0012175854    -0.0019893589     0.0015800133
24 N     0.0004008684    -0.0005709990     0.0010140994
25 N     0.0008910019     0.0004725332    -0.0002737750
26 N     0.0010126277    -0.0021599303     0.0012552986
27 N     0.0001423412     0.0007314779    -0.0011636571
28 N     0.0005236903    -0.0011530816    -0.0010441028
29 N     0.0007445180    -0.0004361408     0.0014305820
30 N     0.0018641443    -0.0017846762     0.0005392798
31 N    -0.0019988561    -0.0010358528     0.0009762675
32 N     0.0001689087     0.0000066822    -0.0014436129
33 N    -0.0013503321    -0.0013622450    -0.0004168721
34 N     0.0002027101    -0.0040251904     0.0040788303
35 N     0.0016495012    -0.0016849326     0.0014315805
36 H     0.0009581567     0.0002836316    -0.0005542126
37 H     0.0005073229    -0.0000621109    -0.0003054493
38 H     0.0003401799    -0.0012611558    -0.0003072658
39 H    -0.0010182443    -0.0019140448     0.0001941548
40 H     0.0001300150    -0.0007543334    -0.0002190895
41 H     0.0008485545    -0.0004539709     0.0004709220
42 H     0.0009362506     0.0002061659     0.0003949909
43 H     0.0010479029     0.0018955100     0.0006393348
44 H    -0.0009879718     0.0001451920     0.0011574429
45 H     0.0013521231    -0.0010086666     0.0014143621
46 H     0.0007365660    -0.0008956127     0.0004918424
47 H     0.0003531439    -0.0000353423     0.0001508692
48 H     0.0003856197     0.0005395385    -0.0001979362
49 H     0.0014987347    -0.0013873744    -0.0012534379
50 H     0.0018254848    -0.0006352042    -0.0008399742
----------------------------------------------
31 Energy: -236.681813247
31 Hessian update information:
31 * Change: RMS: 0.000822, max: 0.0217
31 Trust update: Fletcher's parameter: -0.699
31 Linear interpolation:
31 * Energies: -236.68181, -236.68181
31 * Derivatives: 7.12e-08, 7.12e-08
31 * Cubic interpolation was performed: t = 0.935
31 * Interpolated energy: -236.68181
31 Minimization on sphere was performed:
31 * Trust radius: 1.1e-06
31 * Number of negative eigenvalues: 0
31 * Lowest eigenvalue: 0.00469
31 * lambda: -1.3e+04
31 Quadratic step: RMS: 6.14e-08, max: 3.27e-07
31 * Predicted energy change: -1.71e-08
31 Total step: RMS: 1.78e-07, max: 9.45e-07
31 Perfect transformation to cartesians in 1 iterations
31 * RMS(dcart): 3.61e-07, RMS(dq): 1.78e-07
31 Convergence criteria:
31 * Gradient RMS: 0.0015 > 0.0003 => no
31 * Gradient maximum: 0.00604 > 0.00045 => no
31 * Minimization on sphere: Minimization on sphere => no
New geometry (unit Bohr)
   1 B     -9.355251055450  -5.143854385510  -0.086146383587
   2 B      1.933696588334   6.470154286390   0.007092946605
   3 B    -11.924600580506  -1.233614213130   0.087264884352
   4 B     -0.262898084844   2.186425732024  -0.042070224227
   5 B     -2.003538540070  -0.893994382222  -0.121928530941
   6 B     -4.942048839144  10.930550280358   0.142886857636
   7 B     -4.623490548059  -4.933282287460  -0.122716086348
   8 B     -0.265896429278  10.667560996050  -0.044233758938
   9 B     -7.132750538815  -0.905981645715  -0.015343539687
  10 B     -2.809016005458   6.626141637062   0.079502700994
  11 B    -10.111272768363   3.081325741437   0.112329669235
  12 C     -5.501693495716   3.165526851564   0.084516196613
  13 B     -7.753629839965   7.191000179793   0.179993876162
  14 B      4.669264053978   2.668824074240   0.001378091476
  15 B      0.030617249949  -5.413035620356  -0.132076629221
  16 B      2.498250459699  -1.455123274350  -0.100742876445
  17 B      4.777243891034  -5.554931347057  -0.142784624131
  18 B      7.182869974935  -1.367966694411  -0.067707698859
  19 N     -6.965668754166  -6.309786140415  -0.162273928757
  20 N      1.948285990060   9.184749767037  -0.080246116703
  21 N     -9.451683804429  -2.408254260902   0.002137576880
  22 N     -0.499035126581   5.044121401336   0.018251901367
  23 N    -12.253170898797   1.458213530043   0.134756646244
  24 N     -7.430605476943   9.858743677352   0.213934595811
  25 N     -4.603166134209  -2.113324137010  -0.089374904409
  26 N     -2.678758017758   9.383531451708   0.077299669176
  27 N      4.395399413251   5.330582981304   0.056262641522
  28 N     -2.412955562207  -6.501401336770  -0.139909944276
  29 N     -7.654203586205   1.845079037411   0.048875744557
  30 N     -5.448682838961   5.689886051747   0.133595633536
  31 N    -10.088793236329   5.798904570656   0.173892603502
  32 N      2.360438156543   1.247649705836  -0.044155895054
  33 N      2.374282979949  -6.794367843770  -0.157638419313
  34 N      7.043568625743   1.332417552479  -0.012213985094
  35 N      0.104049595885  -2.707461238924  -0.106190760004
  36 N      4.863837494181  -2.819011080532  -0.119786982887
  37 H     -8.897641338494  11.046712213652   0.221314852240
  38 H    -11.727336711309   6.740581225619   0.203301689225
  39 H    -14.019245307623   2.122239748027   0.176401232465
  40 H    -13.757262978776  -2.552218040669   0.119411468832
  41 H    -11.239428899380  -6.377389554807  -0.099098068284
  42 H     -6.877882222829  -8.195920104650  -0.194914594537
  43 H     -2.636010709108  -8.375042551705  -0.144278752133
  44 H      2.366237059583  -8.679796559393  -0.132828833564
  45 H      6.671483201802  -6.770139923690  -0.096078199542
  46 H      9.188883076190  -2.408990750151  -0.008630101775
  47 H      8.672376582242   2.287735355563   0.058371776885
  48 H      5.903987145340   6.465374184861   0.087828401735
  49 H      3.613557724238  10.071793455398  -0.166350440998
  50 H     -0.125937737875  12.907142909967  -0.159149052725
  51 H     -4.707278002665  13.166870521145   0.099699779240


******** <class 'pyscf.scf.hf.as_scanner.<locals>.SCF_Scanner'> flags ********
method = SCF_Scanner-RHF
initial guess = minao
damping factor = 0
level shift factor = 0
DIIS = <class 'pyscf.scf.diis.CDIIS'>
DIIS start cycle = 1
DIIS space = 8
SCF tol = 1e-09
SCF gradient tol = None
max. SCF cycles = 50
direct_scf = False
chkfile to save SCF result = /tmp/tmpazwqv558
max_memory 24000 MB (current use 1111 MB)
Set gradient conv threshold to 3.16228e-05
init E= -236.681816740285
  HOMO = -0.278674577168042  LUMO = 0.10286360728096
cycle= 1 E= -236.681813332713  delta_E= 3.41e-06  |g|= 1.03e-06  |ddm|= 4.31e-06
  HOMO = -0.278675065099205  LUMO = 0.10286311702802
cycle= 2 E= -236.681813332717  delta_E= -4.09e-12  |g|= 5.95e-07  |ddm|= 2.37e-06
  HOMO = -0.278674988186864  LUMO = 0.102863203556225
Extra cycle  E= -236.681813332714  delta_E= 2.5e-12  |g|= 3.69e-07  |ddm|= 9.01e-07
converged SCF energy = -236.681813332714


******** <class 'pyscf.grad.rhf.as_scanner.<locals>.SCF_GradScanner'> for <class 'pyscf.scf.hf.as_scanner.<locals>.SCF_Scanner'> ********
max_memory 24000 MB (current use 18570 MB)
--------------- SCF_Scanner gradients ---------------
         x                y                z
0 B     0.0019900540    -0.0012355403     0.0003315259
1 B    -0.0007292476    -0.0007881704     0.0005072657
2 B     0.0035096104     0.0006361849    -0.0000554781
3 B     0.0000925956     0.0060407546     0.0011621490
4 B     0.0023960166    -0.0028726785    -0.0057556152
5 B    -0.0006180004    -0.0010385619     0.0013240843
6 B     0.0016617127     0.0005307849     0.0015312896
7 B    -0.0000456633     0.0006965106     0.0021799029
8 B     0.0034388542    -0.0014201581     0.0004722040
9 B     0.0042663267    -0.0017948283    -0.0003073065
10 B     0.0009916173     0.0003089968    -0.0007220415
11 C     0.0024528384    -0.0012484137    -0.0004424704
12 B     0.0002144474     0.0001337962     0.0000341404
13 B     0.0012768657    -0.0009978757    -0.0006026532
14 B     0.0025163899    -0.0007064859     0.0006489517
15 B     0.0008667967    -0.0007522234    -0.0008711946
16 B     0.0010156552    -0.0010013770    -0.0023104730
17 B    -0.0009778747     0.0008620584    -0.0028898937
18 N     0.0010999404     0.0012615819    -0.0025719193
19 N     0.0012249068    -0.0028330187    -0.0017891259
20 N    -0.0005133132    -0.0004087927     0.0005551422
21 N     0.0003298392     0.0015466986    -0.0000346611
22 N     0.0015913206     0.0003636922     0.0010077515
23 N     0.0012176482    -0.0019894517     0.0015800172
24 N     0.0004008780    -0.0005710311     0.0010141049
25 N     0.0008910045     0.0004725559    -0.0002737829
26 N     0.0010126044    -0.0021600487     0.0012552968
27 N     0.0001423229     0.0007316282    -0.0011636656
28 N     0.0005236401    -0.0011531804    -0.0010441089
29 N     0.0007445664    -0.0004360280     0.0014305932
30 N     0.0018642723    -0.0017847871     0.0005392798
31 N    -0.0019990208    -0.0010357677     0.0009762696
32 N     0.0001688747     0.0000066442    -0.0014436087
33 N    -0.0013504967    -0.0013623453    -0.0004168703
34 N     0.0002027207    -0.0040254654     0.0040788499
35 N     0.0016495819    -0.0016850243     0.0014315997
36 H     0.0009581369     0.0002836708    -0.0005542154
37 H     0.0005072801    -0.0000620779    -0.0003054496
38 H     0.0003401608    -0.0012611763    -0.0003072665
39 H    -0.0010183451    -0.0019141310     0.0001941567
40 H     0.0001299795    -0.0007543564    -0.0002190900
41 H     0.0008485537    -0.0004539651     0.0004709247
42 H     0.0009362626     0.0002062443     0.0003949928
43 H     0.0010479108     0.0018957743     0.0006393350
44 H    -0.0009880831     0.0001452420     0.0011574483
45 H     0.0013521469    -0.0010086906     0.0014143723
46 H     0.0007365401    -0.0008956407     0.0004918437
47 H     0.0003531132    -0.0000353440     0.0001508687
48 H     0.0003856091     0.0005395626    -0.0001979381
49 H     0.0014987489    -0.0013874278    -0.0012534433
50 H     0.0018255148    -0.0006352167    -0.0008399812
----------------------------------------------
32 Energy: -236.681813333
32 Hessian update information:
32 * Change: RMS: 0.00296, max: 0.0502
32 Trust update: Fletcher's parameter: 4.99
32 Linear interpolation:
32 * Energies: -236.68181, -236.68181
32 * Derivatives: 2.17e-08, 2.17e-08
32 * Cubic interpolation was performed: t = 0.935
32 * Interpolated energy: -236.68181
32 Minimization on sphere was performed:
32 * Trust radius: 2.3e-06
32 * Number of negative eigenvalues: 0
32 * Lowest eigenvalue: 0.00225
32 * lambda: -6.52e+03
32 Quadratic step: RMS: 1.23e-07, max: 6.53e-07
32 * Predicted energy change: -3.42e-08
32 Total step: RMS: 4.98e-08, max: 2.65e-07
32 Perfect transformation to cartesians in 1 iterations
32 * RMS(dcart): 1.01e-07, RMS(dq): 4.98e-08
32 Convergence criteria:
32 * Gradient RMS: 0.0015 > 0.0003 => no
32 * Gradient maximum: 0.00604 > 0.00045 => no
32 * Minimization on sphere: Minimization on sphere => no
New geometry (unit Bohr)
   1 B     -9.355251331413  -5.143854332383  -0.086146264049
   2 B      1.933696731688   6.470154269614   0.007092990334
   3 B    -11.924600932838  -1.233614109162   0.087264866826
   4 B     -0.262897807138   2.186425412585  -0.042070203080
   5 B     -2.003538525074  -0.893994424070  -0.121928447276
   6 B     -4.942048873887  10.930550291740   0.142886804253
   7 B     -4.623490707711  -4.933282459770  -0.122716001892
   8 B     -0.265896478672  10.667560919738  -0.044233634292
   9 B     -7.132750842113  -0.905981568472  -0.015343497543
  10 B     -2.809016168567   6.626141501905   0.079502670192
  11 B    -10.111273115701   3.081325845261   0.112329605867
  12 C     -5.501693904674   3.165526923385   0.084516177580
  13 B     -7.753630023428   7.191000265506   0.179993744704
  14 B      4.669264470872   2.668824176215   0.001378086336
  15 B      0.030617327224  -5.413035735204  -0.132076637644
  16 B      2.498250786877  -1.455123286297  -0.100742884525
  17 B      4.777244234813  -5.554931438855  -0.142784693479
  18 B      7.182870475787  -1.367966659481  -0.067707756227
  19 N     -6.965669026117  -6.309786271439  -0.162273773356
  20 N      1.948286011501   9.184749803562  -0.080245960151
  21 N     -9.451684073710  -2.408254185767   0.002137617418
  22 N     -0.499035036761   5.044121165634   0.018251904428
  23 N    -12.253171258332   1.458213649575   0.134756570695
  24 N     -7.430605574164   9.858743772080   0.213934455364
  25 N     -4.603166276598  -2.113324167579  -0.089374830844
  26 N     -2.678758086597   9.383531333807   0.077299670658
  27 N      4.395399664587   5.330583124107   0.056262654557
  28 N     -2.412955574185  -6.501401541048  -0.139909885604
  29 N     -7.654203945132   1.845079137380   0.048875742370
  30 N     -5.448683081759   5.689886062227   0.133595546392
  31 N    -10.088793518799   5.798904734310   0.173892480140
  32 N      2.360438594163   1.247649645744  -0.044155891437
  33 N      2.374283210979  -6.794368050849  -0.157638464257
  34 N      7.043569185931   1.332417700360  -0.012214027721
  35 N      0.104049747016  -2.707461206638  -0.106190769240
  36 N      4.863837852918  -2.819011077201  -0.119787030584
  37 H     -8.897641421732  11.046712286552   0.221314729582
  38 H    -11.727336946109   6.740581411544   0.203301549331
  39 H    -14.019245619947   2.122239963830   0.176401127339
  40 H    -13.757263218226  -2.552217844668   0.119411444374
  41 H    -11.239429164932  -6.377389435084  -0.099097922537
  42 H     -6.877882587690  -8.195920242397  -0.194914427490
  43 H     -2.636010694047  -8.375042803414  -0.144278693660
  44 H      2.366237284241  -8.679796915319  -0.132828926218
  45 H      6.671483688417  -6.770140009605  -0.096078382521
  46 H      9.188883531314  -2.408990711537  -0.008630288294
  47 H      8.672377135144   2.287735551725   0.058371679745
  48 H      5.903987372068   6.465374370840   0.087828427124
  49 H      3.613557760503  10.071793460347  -0.166350194974
  50 H     -0.125937959755  12.907142900662  -0.159148780760
  51 H     -4.707278097611  13.166870542463   0.099699827899


******** <class 'pyscf.scf.hf.as_scanner.<locals>.SCF_Scanner'> flags ********
method = SCF_Scanner-RHF
initial guess = minao
damping factor = 0
level shift factor = 0
DIIS = <class 'pyscf.scf.diis.CDIIS'>
DIIS start cycle = 1
DIIS space = 8
SCF tol = 1e-09
SCF gradient tol = None
max. SCF cycles = 50
direct_scf = False
chkfile to save SCF result = /tmp/tmpazwqv558
max_memory 24000 MB (current use 1111 MB)
Set gradient conv threshold to 3.16228e-05
init E= -236.681812354393
  HOMO = -0.278675136174678  LUMO = 0.102863063789638
cycle= 1 E= -236.681813308837  delta_E= -9.54e-07  |g|= 4.4e-07  |ddm|= 1.38e-06
  HOMO = -0.278674990373266  LUMO = 0.10286321126496
cycle= 2 E= -236.681813308837  delta_E= -4.55e-13  |g|= 2.76e-07  |ddm|= 8.57e-07
  HOMO = -0.278675017111536  LUMO = 0.102863181334601
Extra cycle  E= -236.681813308837  delta_E= 2.27e-13  |g|= 1.76e-07  |ddm|= 4.05e-07
converged SCF energy = -236.681813308837


******** <class 'pyscf.grad.rhf.as_scanner.<locals>.SCF_GradScanner'> for <class 'pyscf.scf.hf.as_scanner.<locals>.SCF_Scanner'> ********
max_memory 24000 MB (current use 18573 MB)
--------------- SCF_Scanner gradients ---------------
         x                y                z
0 B     0.0019900321    -0.0012355352     0.0003315266
1 B    -0.0007292897    -0.0007881960     0.0005072637
2 B     0.0035095624     0.0006361568    -0.0000554769
3 B     0.0000925537     0.0060407640     0.0011621468
4 B     0.0023959780    -0.0028726964    -0.0057556067
5 B    -0.0006179790    -0.0010385541     0.0013240808
6 B     0.0016617144     0.0005308274     0.0015312880
7 B    -0.0000456645     0.0006964853     0.0021799008
8 B     0.0034388782    -0.0014201846     0.0004722025
9 B     0.0042663471    -0.0017948511    -0.0003073076
10 B     0.0009916189     0.0003089891    -0.0007220406
11 C     0.0024527737    -0.0012483589    -0.0004424641
12 B     0.0002144660     0.0001337824     0.0000341386
13 B     0.0012768811    -0.0009978573    -0.0006026517
14 B     0.0025163809    -0.0007064670     0.0006489504
15 B     0.0008667974    -0.0007522575    -0.0008711931
16 B     0.0010156394    -0.0010013663    -0.0023104699
17 B    -0.0009778362     0.0008620286    -0.0028898879
18 N     0.0010999192     0.0012615326    -0.0025719170
19 N     0.0012249215    -0.0028329775    -0.0017891228
20 N    -0.0005132982    -0.0004087846     0.0005551411
21 N     0.0003298626     0.0015466378    -0.0000346630
22 N     0.0015913069     0.0003636950     0.0010077499
23 N     0.0012176290    -0.0019894262     0.0015800153
24 N     0.0004008676    -0.0005710188     0.0010141035
25 N     0.0008909994     0.0004725568    -0.0002737818
26 N     0.0010126131    -0.0021600191     0.0012552971
27 N     0.0001423248     0.0007315833    -0.0011636631
28 N     0.0005236431    -0.0011531487    -0.0010441079
29 N     0.0007445443    -0.0004360635     0.0014305880
30 N     0.0018642352    -0.0017847572     0.0005392796
31 N    -0.0019989616    -0.0010357923     0.0009762683
32 N     0.0001688873     0.0000066499    -0.0014436091
33 N    -0.0013504528    -0.0013623148    -0.0004168704
34 N     0.0002027281    -0.0040253821     0.0040788433
35 N     0.0016495635    -0.0016849932     0.0014315953
36 H     0.0009581402     0.0002836616    -0.0005542146
37 H     0.0005072907    -0.0000620863    -0.0003054497
38 H     0.0003401614    -0.0012611686    -0.0003072665
39 H    -0.0010183181    -0.0019141069     0.0001941562
40 H     0.0001299877    -0.0007543506    -0.0002190898
41 H     0.0008485530    -0.0004539681     0.0004709241
42 H     0.0009362598     0.0002062230     0.0003949924
43 H     0.0010479087     0.0018957101     0.0006393344
44 H    -0.0009880484     0.0001452274     0.0011574464
45 H     0.0013521424    -0.0010086843     0.0014143691
46 H     0.0007365485    -0.0008956317     0.0004918430
47 H     0.0003531276    -0.0000353405     0.0001508690
48 H     0.0003856151     0.0005395585    -0.0001979371
49 H     0.0014987453    -0.0013874113    -0.0012534413
50 H     0.0018255057    -0.0006352115    -0.0008399788
----------------------------------------------
33 Energy: -236.681813309
33 Hessian update information:
33 * Change: RMS: 0.00186, max: 0.0313
33 Trust update: Fletcher's parameter: -0.699
33 Linear interpolation:
33 * Energies: -236.68181, -236.68181
33 * Derivatives: 3.56e-08, 3.56e-08
33 * Cubic interpolation was performed: t = 0.935
33 * Interpolated energy: -236.68181
