#INFO: **** input file is /tigress/xingz/pydmfet/examples/research/CBVN/CBVN.py ****
from pydmfet import locints, sdmfet,oep,tools,dfet_ao
from pydmfet.qcwrap.pyscf_rks_ao import rks_ao
from pyscf import gto, scf, ao2mo, geomopt
import numpy as np
from pyscf.tools import molden
import time
from pydmfet import dfet_ao
from pydmfet.dfet_ao import dfet

bas ='stuttgartdz'
ecp = 'stuttgartdz'
temp = 0.005


mol = gto.Mole()
mol.atom = open('CBVN2.xyz').read()
mol.basis = {'H':'ccpvdz', 'B':bas, 'C':bas, 'N':bas}
mol.ecp = ecp
mol.charge = 0
mol.build(max_memory = 24000, verbose=4)


mf = scf.RHF(mol)
#mf = rks_ao(mol,smear_sigma = temp)
#mf.xc = "pbe,pbe"
mf.max_cycle = 50

#DMguess = None
#mf.scf(dm0=DMguess)

opt1 = geomopt.optimize(mf)
#INFO: ******************** input file end ********************


System: uname_result(system='Linux', node='tiger-h19c2n18', release='3.10.0-957.27.2.el7.x86_64', version='#1 SMP Tue Jul 30 11:12:20 EDT 2019', machine='x86_64', processor='x86_64')  Threads 40
Python 3.7.0 (default, Jun 28 2018, 13:15:42) 
[GCC 7.2.0]
numpy 1.16.4  scipy 1.4.0.dev0+0f78e0f
Date: Sat Sep  7 12:06:00 2019
PySCF version 1.5
PySCF path  /home/xingz/.local/lib/python3.7/site-packages/pyscf

[CONFIG] conf_file None
[INPUT] verbose = 4
[INPUT] num. atoms = 51
[INPUT] num. electrons = 160
[INPUT] charge = 0
[INPUT] spin (= nelec alpha-beta = 2S) = 0
[INPUT] symmetry False subgroup None
[INPUT] Mole.unit = angstrom
[INPUT]  1 B     -4.950586163261  -2.722010684867  -0.045586643021 AA   -9.355252004624  -5.143854702539  -0.086146270248 Bohr
[INPUT]  2 B      1.023268316875   3.423858437000   0.003753449112 AA    1.933696870838   6.470154735211   0.007092990844 Bohr
[INPUT]  3 B     -6.310227517062  -0.652800520614   0.046178582161 AA  -11.924601790941  -1.233614197934   0.087264873106 Bohr
[INPUT]  4 B     -0.139119538349   1.157006584975  -0.022262594331 AA   -0.262897826056   2.186425569922  -0.042070206107 Bohr
[INPUT]  5 B     -1.060227004964  -0.473081509951  -0.064521760304 AA   -2.003538669250  -0.893994488403  -0.121928456050 Bohr
[INPUT]  6 B     -2.615219827507   5.784198533439   0.075612445993 AA   -4.942049229521  10.930551078311   0.142886814535 Bohr
[INPUT]  7 B     -2.446646093484  -2.610580840601  -0.064938516289 AA   -4.623491040421  -4.933282814773  -0.122716010723 Bohr
[INPUT]  8 B     -0.140706367102   5.645030541047  -0.023407432908 AA   -0.265896497806  10.667561687384  -0.044233637475 Bohr
[INPUT]  9 B     -3.774489468432  -0.479424834049  -0.008119429820 AA   -7.132751355391  -0.905981633667  -0.015343498647 Bohr
[INPUT] 10 B     -1.486467448479   3.506403331463   0.042071004300 AA   -2.809016370706   6.626141978727   0.079502675913 Bohr
[INPUT] 11 B     -5.350655691254   1.630567534068   0.059442271814 AA  -10.111273843316   3.081326066996   0.112329613950 Bohr
[INPUT] 12 C     -2.911371245315   1.675124828952   0.044724038348 AA   -5.501694300580   3.165527151179   0.084516183662 Bohr
[INPUT] 13 B     -4.103044605561   3.805313738059   0.095248594660 AA   -7.753630581385   7.191000782976   0.179993757656 Bohr
[INPUT] 14 B      2.470868527549   1.412281035634   0.000729251936 AA    4.669264806876   2.668824368266   0.001378086435 Bohr
[INPUT] 15 B      0.016201992992  -2.864455359094  -0.069891951766 AA    0.030617329427  -5.413036124730  -0.132076647148 Bohr
[INPUT] 16 B      1.322017478712  -0.770018137598  -0.053310842489 AA    2.498250966653  -1.455123391009  -0.100742891775 Bohr
[INPUT] 17 B      2.528008961979  -2.939543337197  -0.075558411295 AA    4.777244578587  -5.554931838592  -0.142784703754 Bohr
[INPUT] 18 B      3.801011638300  -0.723896833588  -0.035829404176 AA    7.182870992672  -1.367966757921  -0.067707761099 Bohr
[INPUT] 19 N     -3.686073572685  -3.338995340898  -0.085871588969 AA   -6.965669527372  -6.309786725496  -0.162273785033 Bohr
[INPUT] 20 N      1.030988631831   4.860360633802  -0.042464336436 AA    1.948286151701   9.184750464504  -0.080245965926 Bohr
[INPUT] 21 N     -5.001616176543  -1.274393324917   0.001131178505 AA   -9.451684753860  -2.408254359067   0.002137617572 Bohr
[INPUT] 22 N     -0.264077987908   2.669234162053   0.009658492574 AA   -0.499035072672   5.044121528613   0.018251905741 Bohr
[INPUT] 23 N     -6.484099458010   0.771653487536   0.071310111365 AA  -12.253172140080   1.458213754509   0.134756580392 Bohr
[INPUT] 24 N     -3.932107416140   5.217022907905   0.113209246556 AA   -7.430606108876   9.858744481523   0.213934470759 Bohr
[INPUT] 25 N     -2.435890866940  -1.118323069245  -0.047295127116 AA   -4.603166607845  -2.113324319655  -0.089374837275 Bohr
[INPUT] 26 N     -1.417537835002   4.965551297129   0.040905227067 AA   -2.678758279362   9.383532009053   0.077299676221 Bohr
[INPUT] 27 N      2.325945502762   2.820823313181   0.029772916760 AA    4.395399980883   5.330583507700   0.056262658606 Bohr
[INPUT] 28 N     -1.276881192706  -3.440393782136  -0.074037128372 AA   -2.412955747823  -6.501402008894  -0.139909895672 Bohr
[INPUT] 29 N     -4.050430586970   0.976373902106   0.025863930890 AA   -7.654204495934   1.845079270153   0.048875745887 Bohr
[INPUT] 30 N     -2.883319123878   3.010958253533   0.070695723718 AA   -5.448683473850   5.689886471676   0.133595556006 Bohr
[INPUT] 31 N     -5.338760000007   3.068648454515   0.092019944262 AA  -10.088794244796   5.798905151604   0.173892492653 Bohr
[INPUT] 32 N      1.249090401693   0.660227807251  -0.023366293158 AA    2.360438764022   1.247649735526  -0.044155894614 Bohr
[INPUT] 33 N      1.256416657933  -3.595424993842  -0.083418688852 AA    2.374283381834  -6.794368539777  -0.157638475601 Bohr
[INPUT] 34 N      3.727296564952   0.705085133195  -0.006463385589 AA    7.043569692792   1.332417796242  -0.012214028600 Bohr
[INPUT] 35 N      0.055060758885  -1.432726873103  -0.056193739136 AA    0.104049754503  -2.707461401469  -0.106190776882 Bohr
[INPUT] 36 N      2.573832334589  -1.491756526734  -0.063388571310 AA    4.863838202924  -2.819011280059  -0.119787039204 Bohr
[INPUT] 37 H     -4.708429410141   5.845668818292   0.117114719763 AA   -8.897642062013  11.046713081482   0.221314745508 Bohr
[INPUT] 38 H     -6.205839903238   3.566962328021   0.107582554592 AA  -11.727337790017   6.740581896601   0.203301563961 Bohr
[INPUT] 39 H     -7.418665830219   1.123041105777   0.093347463286 AA  -14.019246628783   2.122240116548   0.176401140033 Bohr
[INPUT] 40 H     -7.280030703590  -1.350575617890   0.063189819633 AA  -13.757264208209  -2.552218028328   0.119411452967 Bohr
[INPUT] 41 H     -5.947650205829  -3.374769397059  -0.052440366030 AA  -11.239429973730  -6.377389894006  -0.099097929668 Bohr
[INPUT] 42 H     -3.639618986699  -4.337094526895  -0.103144280530 AA   -6.877883082628  -8.195920832182  -0.194914441516 Bohr
[INPUT] 43 H     -1.394916887410  -4.431882110968  -0.076349002200 AA   -2.636010883736  -8.375043406089  -0.144278704042 Bohr
[INPUT] 44 H      1.252158936556  -4.593151053527  -0.070290045764 AA    2.366237454517  -8.679797539924  -0.132828935776 Bohr
[INPUT] 45 H      3.530397384985  -3.582604065628  -0.050842494151 AA    6.671484168502  -6.770140496789  -0.096078389435 Bohr
[INPUT] 46 H      4.862548108482  -1.274783077598  -0.004566952217 AA    9.188884192553  -2.408990884890  -0.008630288915 Bohr
[INPUT] 47 H      4.589224674666   1.210617605701   0.030888964907 AA    8.672377759215   2.287735716352   0.058371683945 Bohr
[INPUT] 48 H      3.124255795682   3.421329023316   0.046476805449 AA    5.903987796923   6.465374836093   0.087828433444 Bohr
[INPUT] 49 H      1.912212554806   5.329763955843  -0.088028738547 AA    3.613558020537  10.071794185121  -0.166350206945 Bohr
[INPUT] 50 H     -0.066643503088   6.830166372622  -0.084217913984 AA   -0.125937968818  12.907143829470  -0.159148792212 Bohr
[INPUT] 51 H     -2.490984473972   6.967608331600   0.052758880653 AA   -4.707278436350  13.166871489961   0.099699835073 Bohr

nuclear repulsion = 1564.37137476352
number of shells = 189
number of NR pGTOs = 681
number of NR cGTOs = 363
basis = {'H': 'ccpvdz', 'B': 'stuttgartdz', 'C': 'stuttgartdz', 'N': 'stuttgartdz'}
ecp = stuttgartdz
CPU time:         2.68
Create scanner for <class 'pyscf.grad.rhf.Gradients'>
Create scanner for <class 'pyscf.scf.hf.RHF'>
0 Internal coordinates:
0 * Number of fragments: 1
0 * Number of internal coordinates: 347
0 * Number of strong bonds: 61
0 * Number of strong angles: 106
0 * Number of strong dihedrals: 180
New geometry (unit Bohr)
   1 B     -9.355252004624  -5.143854702539  -0.086146270248
   2 B      1.933696870838   6.470154735211   0.007092990844
   3 B    -11.924601790941  -1.233614197934   0.087264873106
   4 B     -0.262897826056   2.186425569922  -0.042070206107
   5 B     -2.003538669250  -0.893994488403  -0.121928456050
   6 B     -4.942049229521  10.930551078311   0.142886814535
   7 B     -4.623491040421  -4.933282814773  -0.122716010723
   8 B     -0.265896497806  10.667561687384  -0.044233637475
   9 B     -7.132751355391  -0.905981633667  -0.015343498647
  10 B     -2.809016370706   6.626141978727   0.079502675913
  11 B    -10.111273843316   3.081326066996   0.112329613950
  12 C     -5.501694300580   3.165527151179   0.084516183662
  13 B     -7.753630581385   7.191000782976   0.179993757656
  14 B      4.669264806876   2.668824368266   0.001378086435
  15 B      0.030617329427  -5.413036124730  -0.132076647148
  16 B      2.498250966653  -1.455123391009  -0.100742891775
  17 B      4.777244578587  -5.554931838592  -0.142784703754
  18 B      7.182870992672  -1.367966757921  -0.067707761099
  19 N     -6.965669527372  -6.309786725496  -0.162273785033
  20 N      1.948286151701   9.184750464504  -0.080245965926
  21 N     -9.451684753860  -2.408254359067   0.002137617572
  22 N     -0.499035072672   5.044121528613   0.018251905741
  23 N    -12.253172140080   1.458213754509   0.134756580392
  24 N     -7.430606108876   9.858744481523   0.213934470759
  25 N     -4.603166607845  -2.113324319655  -0.089374837275
  26 N     -2.678758279362   9.383532009053   0.077299676221
  27 N      4.395399980883   5.330583507700   0.056262658606
  28 N     -2.412955747823  -6.501402008894  -0.139909895672
  29 N     -7.654204495934   1.845079270153   0.048875745887
  30 N     -5.448683473850   5.689886471676   0.133595556006
  31 N    -10.088794244796   5.798905151604   0.173892492653
  32 N      2.360438764022   1.247649735526  -0.044155894614
  33 N      2.374283381834  -6.794368539777  -0.157638475601
  34 N      7.043569692792   1.332417796242  -0.012214028600
  35 N      0.104049754503  -2.707461401469  -0.106190776882
  36 N      4.863838202924  -2.819011280059  -0.119787039204
  37 H     -8.897642062013  11.046713081482   0.221314745508
  38 H    -11.727337790017   6.740581896601   0.203301563961
  39 H    -14.019246628783   2.122240116548   0.176401140033
  40 H    -13.757264208209  -2.552218028328   0.119411452967
  41 H    -11.239429973730  -6.377389894006  -0.099097929668
  42 H     -6.877883082628  -8.195920832182  -0.194914441516
  43 H     -2.636010883736  -8.375043406089  -0.144278704042
  44 H      2.366237454517  -8.679797539924  -0.132828935776
  45 H      6.671484168502  -6.770140496789  -0.096078389435
  46 H      9.188884192553  -2.408990884890  -0.008630288915
  47 H      8.672377759215   2.287735716352   0.058371683945
  48 H      5.903987796923   6.465374836093   0.087828433444
  49 H      3.613558020537  10.071794185121  -0.166350206945
  50 H     -0.125937968818  12.907143829470  -0.159148792212
  51 H     -4.707278436350  13.166871489961   0.099699835073


******** <class 'pyscf.scf.hf.as_scanner.<locals>.SCF_Scanner'> flags ********
method = SCF_Scanner-RHF
initial guess = minao
damping factor = 0
level shift factor = 0
DIIS = <class 'pyscf.scf.diis.CDIIS'>
DIIS start cycle = 1
DIIS space = 8
SCF tol = 1e-09
SCF gradient tol = None
max. SCF cycles = 50
direct_scf = False
chkfile to save SCF result = /tmp/tmp5feegitr
max_memory 24000 MB (current use 73 MB)
Set gradient conv threshold to 3.16228e-05
init E= -196.649094550345
  HOMO = 0.154646258408165  LUMO = 0.19628866859594
cycle= 1 E= -229.540078660852  delta_E= -32.9  |g|= 4.57  |ddm|= 15.1
  HOMO = -0.487824592159018  LUMO = -0.284018359560983
cycle= 2 E= -234.785428741016  delta_E= -5.25  |g|= 2.98  |ddm|= 8.97
  HOMO = -0.312177727017038  LUMO = 0.0273026986931083
cycle= 3 E= -236.612343814741  delta_E= -1.83  |g|= 0.327  |ddm|= 2.26
  HOMO = -0.23681011942374  LUMO = 0.121710461379017
cycle= 4 E= -236.674859386099  delta_E= -0.0625  |g|= 0.106  |ddm|= 0.815
  HOMO = -0.28673715463534  LUMO = 0.100291263024773
cycle= 5 E= -236.68083245334  delta_E= -0.00597  |g|= 0.0355  |ddm|= 0.271
  HOMO = -0.279367989502213  LUMO = 0.101213855538703
cycle= 6 E= -236.68167108474  delta_E= -0.000839  |g|= 0.0143  |ddm|= 0.081
  HOMO = -0.277657111688185  LUMO = 0.102955343193095
cycle= 7 E= -236.681800517578  delta_E= -0.000129  |g|= 0.00485  |ddm|= 0.0371
  HOMO = -0.278927365713209  LUMO = 0.102783143897188
cycle= 8 E= -236.681812742242  delta_E= -1.22e-05  |g|= 0.00103  |ddm|= 0.0139
  HOMO = -0.278638667385931  LUMO = 0.102878299054359
cycle= 9 E= -236.681813211549  delta_E= -4.69e-07  |g|= 0.000255  |ddm|= 0.00236
  HOMO = -0.278676706847732  LUMO = 0.102860393455513
cycle= 10 E= -236.681813254035  delta_E= -4.25e-08  |g|= 9.43e-05  |ddm|= 0.000747
  HOMO = -0.278676474971698  LUMO = 0.102863231042139
cycle= 11 E= -236.681813261017  delta_E= -6.98e-09  |g|= 4.83e-05  |ddm|= 0.000233
  HOMO = -0.278673537800894  LUMO = 0.10286369138256
cycle= 12 E= -236.681813263833  delta_E= -2.82e-09  |g|= 2.56e-05  |ddm|= 0.000154
  HOMO = -0.27867542359034  LUMO = 0.102862967691677
cycle= 13 E= -236.681813265102  delta_E= -1.27e-09  |g|= 1.02e-05  |ddm|= 0.000134
  HOMO = -0.278675149293107  LUMO = 0.102863352504032
cycle= 14 E= -236.681813265325  delta_E= -2.23e-10  |g|= 3.94e-06  |ddm|= 6.54e-05
  HOMO = -0.27867509111616  LUMO = 0.102863183184656
Extra cycle  E= -236.681813265342  delta_E= -1.68e-11  |g|= 2.27e-06  |ddm|= 9.43e-06
converged SCF energy = -236.681813265342


******** <class 'pyscf.grad.rhf.as_scanner.<locals>.SCF_GradScanner'> for <class 'pyscf.scf.hf.as_scanner.<locals>.SCF_Scanner'> ********
max_memory 24000 MB (current use 18216 MB)
--------------- SCF_Scanner gradients ---------------
         x                y                z
0 B     0.0019900311    -0.0012355238     0.0003315251
1 B    -0.0007293244    -0.0007882863     0.0005072648
2 B     0.0035095960     0.0006361172    -0.0000554769
3 B     0.0000925196     0.0060407636     0.0011622625
4 B     0.0023959312    -0.0028726583    -0.0057554861
5 B    -0.0006179373    -0.0010385574     0.0013240819
6 B     0.0016617738     0.0005309087     0.0015312874
7 B    -0.0000456645     0.0006964826     0.0021799001
8 B     0.0034388917    -0.0014202649     0.0004720996
9 B     0.0042664273    -0.0017948244    -0.0003074099
10 B     0.0009916300     0.0003089770    -0.0007219105
11 C     0.0024528131    -0.0012483761    -0.0004434625
12 B     0.0002144712     0.0001337758     0.0000342709
13 B     0.0012768826    -0.0009978652    -0.0006026679
14 B     0.0025163832    -0.0007064784     0.0006489343
15 B     0.0008668148    -0.0007522471    -0.0008711682
16 B     0.0010156221    -0.0010013798    -0.0023104720
17 B    -0.0009778342     0.0008620577    -0.0028898894
18 N     0.0010998568     0.0012615145    -0.0025719133
19 N     0.0012249050    -0.0028329146    -0.0017891181
20 N    -0.0005132997    -0.0004087503     0.0005551586
21 N     0.0003298476     0.0015466371    -0.0000346317
22 N     0.0015912843     0.0003637001     0.0010077019
23 N     0.0012176166    -0.0019894093     0.0015799670
24 N     0.0004008665    -0.0005710045     0.0010141301
25 N     0.0008909679     0.0004725373    -0.0002737673
26 N     0.0010126270    -0.0021599884     0.0012552973
27 N     0.0001423072     0.0007315571    -0.0011636638
28 N     0.0005235959    -0.0011531063    -0.0010431372
29 N     0.0007444711    -0.0004360604     0.0014315573
30 N     0.0018642632    -0.0017847723     0.0005392357
31 N    -0.0019989528    -0.0010357673     0.0009761353
32 N     0.0001689083     0.0000066165    -0.0014436028
33 N    -0.0013504112    -0.0013623164    -0.0004168628
34 N     0.0002027154    -0.0040254084     0.0040787147
35 N     0.0016495768    -0.0016850036     0.0014316053
36 H     0.0009580799     0.0002837120    -0.0005542269
37 H     0.0005072243    -0.0000620478    -0.0003054646
38 H     0.0003400857    -0.0012611414    -0.0003072776
39 H    -0.0010183623    -0.0019141324     0.0001941572
40 H     0.0001299461    -0.0007543823    -0.0002190907
41 H     0.0008485558    -0.0004540370     0.0004709232
42 H     0.0009362529     0.0002061768     0.0003949914
43 H     0.0010479086     0.0018956689     0.0006393351
44 H    -0.0009879962     0.0001451949     0.0011574459
45 H     0.0013521959    -0.0010087132     0.0014143687
46 H     0.0007365805    -0.0008956132     0.0004918447
47 H     0.0003531643    -0.0000353115     0.0001508688
48 H     0.0003856737     0.0005395906    -0.0001979397
49 H     0.0014987512    -0.0013873588    -0.0012534440
50 H     0.0018255064    -0.0006351595    -0.0008399781
----------------------------------------------
1 Energy: -236.681813265
1 Minimization on sphere was performed:
1 * Trust radius: 0.3
1 * Number of negative eigenvalues: 0
1 * Lowest eigenvalue: 0.00492
1 * lambda: -0.0112
1 Quadratic step: RMS: 0.0161, max: 0.0554
1 * Predicted energy change: -0.00158
1 Total step: RMS: 0.0161, max: 0.0554
1 Perfect transformation to cartesians in 5 iterations
1 * RMS(dcart): 6.56e-08, RMS(dq): 8.88e-08
1 Convergence criteria:
1 * Gradient RMS: 0.0015 > 0.0003 => no
1 * Gradient maximum: 0.00604 > 0.00045 => no
1 * Minimization on sphere: Minimization on sphere => no
New geometry (unit Bohr)
   1 B     -9.366648142390  -5.143163177018   0.024753826181
   2 B      1.941059472046   6.464222200804   0.048764658230
   3 B    -11.944015640344  -1.229484653383   0.068412898257
   4 B     -0.242648033600   2.166320332133  -0.019276792197
   5 B     -2.010227975790  -0.894814181526  -0.043922522525
   6 B     -4.939608682762  10.924357954045   0.094449255860
   7 B     -4.632108802754  -4.940002028527  -0.041584022225
   8 B     -0.265603016878  10.657777546045   0.070309371484
   9 B     -7.149870259182  -0.904006919986   0.019020052959
  10 B     -2.813368169834   6.610846106386   0.046948413932
  11 B    -10.131171002978   3.085794580140   0.048812068325
  12 C     -5.523657460884   3.165113327700   0.059672695226
  13 B     -7.761394360372   7.191975626508   0.055783592731
  14 B      4.696025889207   2.675620255237  -0.002842972550
  15 B      0.031391077147  -5.407313119210  -0.138403353594
  16 B      2.512563510488  -1.452132558611  -0.107596013614
  17 B      4.786988838287  -5.551823690715  -0.203752709424
  18 B      7.204905286763  -1.363983530738  -0.118002780226
  19 N     -6.977147202486  -6.317321441474  -0.013833612933
  20 N      1.952600255587   9.181678298097   0.065711063842
  21 N     -9.467384777123  -2.405939186107   0.038010387321
  22 N     -0.492277522000   5.027216753215   0.022196926768
  23 N    -12.273922960649   1.463438629485   0.061522594673
  24 N     -7.433035823597   9.859691340877   0.083518126746
  25 N     -4.614640053517  -2.115016022950  -0.021105200512
  26 N     -2.679485737425   9.368736840253   0.077629965894
  27 N      4.410380065233   5.337353377564   0.069045176978
  28 N     -2.412627751330  -6.502852519798  -0.083156972190
  29 N     -7.675224793761   1.847277643622   0.040041066051
  30 N     -5.458764041792   5.687169476844   0.048453701135
  31 N    -10.102483212420   5.806185743472   0.055396865209
  32 N      2.389170393696   1.248500743014  -0.039969015654
  33 N      2.379158837938  -6.792926999984  -0.195307633231
  34 N      7.074756813583   1.340659218894  -0.050633930912
  35 N      0.109213874329  -2.696733243288  -0.115603286246
  36 N      4.879097718877  -2.813451561419  -0.161572610077
  37 H     -8.900223189376  11.046042242504   0.107288688587
  38 H    -11.738530713374   6.750624315479   0.070728522449
  39 H    -14.037030291360   2.135468101781   0.076490059954
  40 H    -13.773427033832  -2.544019589708   0.097576654345
  41 H    -11.248988529146  -6.376644804637   0.036784207960
  42 H     -6.892640570881  -8.203844187397  -0.034376077492
  43 H     -2.630815427791  -8.378445894378  -0.086370505064
  44 H      2.368128232250  -8.683016360201  -0.214936986315
  45 H      6.686537078894  -6.765472565279  -0.264822854622
  46 H      9.209135885055  -2.405037172256  -0.176295402467
  47 H      8.704586754648   2.297579178138  -0.028589263824
  48 H      5.917180690440   6.474481473648   0.111947247573
  49 H      3.622154554246  10.064432671434   0.059711043507
  50 H     -0.137598994742  12.902617775675   0.089568758254
  51 H     -4.710979185137  13.161220731106   0.144838711990


******** <class 'pyscf.scf.hf.as_scanner.<locals>.SCF_Scanner'> flags ********
method = SCF_Scanner-RHF
initial guess = minao
damping factor = 0
level shift factor = 0
DIIS = <class 'pyscf.scf.diis.CDIIS'>
DIIS start cycle = 1
DIIS space = 8
SCF tol = 1e-09
SCF gradient tol = None
max. SCF cycles = 50
direct_scf = False
chkfile to save SCF result = /tmp/tmp5feegitr
max_memory 24000 MB (current use 896 MB)
Set gradient conv threshold to 3.16228e-05
init E= -236.643230220489
  HOMO = -0.284228556489319  LUMO = 0.0978108194882721
cycle= 1 E= -236.680357582815  delta_E= -0.0371  |g|= 0.0276  |ddm|= 0.183
  HOMO = -0.278102463216431  LUMO = 0.103595510472458
cycle= 2 E= -236.680799509288  delta_E= -0.000442  |g|= 0.0107  |ddm|= 0.0477
  HOMO = -0.279243337101458  LUMO = 0.102584612286192
cycle= 3 E= -236.680869447336  delta_E= -6.99e-05  |g|= 0.00551  |ddm|= 0.0214
  HOMO = -0.279028745458152  LUMO = 0.10277879500291
cycle= 4 E= -236.680882518445  delta_E= -1.31e-05  |g|= 0.00115  |ddm|= 0.00876
  HOMO = -0.27885254684537  LUMO = 0.102922023017512
cycle= 5 E= -236.680883879159  delta_E= -1.36e-06  |g|= 0.000517  |ddm|= 0.00339
  HOMO = -0.278896764774687  LUMO = 0.102891573039618
cycle= 6 E= -236.680884183002  delta_E= -3.04e-07  |g|= 0.000224  |ddm|= 0.00176
  HOMO = -0.27891416089652  LUMO = 0.102875568690575
cycle= 7 E= -236.680884254667  delta_E= -7.17e-08  |g|= 0.000111  |ddm|= 0.000869
  HOMO = -0.278902012794442  LUMO = 0.102882874153969
cycle= 8 E= -236.680884279097  delta_E= -2.44e-08  |g|= 4.15e-05  |ddm|= 0.00063
  HOMO = -0.278906276545847  LUMO = 0.102881990273547
cycle= 9 E= -236.68088428249  delta_E= -3.39e-09  |g|= 1.53e-05  |ddm|= 0.000251
  HOMO = -0.278905627091022  LUMO = 0.102881378834511
cycle= 10 E= -236.680884282802  delta_E= -3.12e-10  |g|= 6.47e-06  |ddm|= 6.68e-05
  HOMO = -0.27890533168198  LUMO = 0.102881802211512
Extra cycle  E= -236.680884282836  delta_E= -3.43e-11  |g|= 3.81e-06  |ddm|= 1.59e-05
converged SCF energy = -236.680884282836


******** <class 'pyscf.grad.rhf.as_scanner.<locals>.SCF_GradScanner'> for <class 'pyscf.scf.hf.as_scanner.<locals>.SCF_Scanner'> ********
max_memory 24000 MB (current use 18519 MB)
--------------- SCF_Scanner gradients ---------------
         x                y                z
0 B     0.0014965495    -0.0007805576     0.0003245726
1 B     0.0003108762    -0.0007697095    -0.0008018667
2 B     0.0021817073     0.0000052959     0.0001825104
3 B     0.0013857095     0.0004534105    -0.0010401175
4 B     0.0000537047    -0.0032052951     0.0012295168
5 B     0.0002911170    -0.0005418789    -0.0015478012
6 B     0.0011380612     0.0000547613    -0.0004771238
7 B     0.0000130099    -0.0000334668    -0.0014610862
8 B     0.0022513829    -0.0010114563    -0.0002246458
9 B     0.0023497709    -0.0016618827    -0.0003828483
10 B     0.0007864717    -0.0001995147     0.0001390007
11 C    -0.0009612510     0.0005866838     0.0003771092
12 B     0.0005902383    -0.0007399629    -0.0003965099
13 B     0.0014201829    -0.0006576612     0.0003110426
14 B     0.0013947677    -0.0003174136    -0.0005059488
15 B     0.0005206129    -0.0006439663     0.0007340688
16 B     0.0009813837    -0.0005118179     0.0016723909
17 B     0.0002388723    -0.0000861177     0.0027305885
18 N     0.0001274978    -0.0006090189     0.0002840761
19 N     0.0017744116    -0.0016302882     0.0011920913
20 N    -0.0000061885    -0.0000082551    -0.0001223529
21 N     0.0009739671    -0.0010706327     0.0000888803
22 N     0.0008407575     0.0000267910    -0.0002486347
23 N     0.0009868523    -0.0006613022     0.0005893380
24 N    -0.0006583308    -0.0004195898    -0.0001258541
25 N     0.0009636755    -0.0006314868     0.0021640576
26 N     0.0007598965    -0.0002006710     0.0010039088
27 N     0.0009090558    -0.0007548693     0.0012114229
28 N     0.0009721397    -0.0005455940     0.0002785735
29 N     0.0009911026    -0.0006352871     0.0001707338
30 N     0.0007230940    -0.0003470628    -0.0002074706
31 N     0.0020350442    -0.0002285582     0.0003831897
32 N     0.0003449115     0.0001639618    -0.0008961259
33 N     0.0008562922    -0.0004440481    -0.0017912704
34 N     0.0007647643     0.0006726300    -0.0014672129
35 N     0.0012620915    -0.0001813263    -0.0033127300
36 H     0.0009934469    -0.0002811289     0.0001395306
37 H     0.0008376505    -0.0004855093     0.0000576557
38 H     0.0007315234    -0.0007802359     0.0000019030
39 H    -0.0000417350    -0.0010182297     0.0000895157
40 H     0.0005681513    -0.0005434270    -0.0001731220
41 H     0.0008957616    -0.0004804473    -0.0001639902
42 H     0.0007645950    -0.0004518218     0.0000024446
43 H     0.0008799226    -0.0005806622     0.0001481894
44 H     0.0001256627    -0.0001281228    -0.0005982968
45 H     0.0011473653    -0.0006346066    -0.0008862553
46 H     0.0009231332    -0.0004981840     0.0000614079
47 H     0.0007055407    -0.0002776311     0.0001766655
48 H     0.0006758789    -0.0000432234    -0.0002250971
49 H     0.0010707564    -0.0007914738     0.0004063658
50 H     0.0011286411    -0.0004782371     0.0006305987
----------------------------------------------
2 Energy: -236.680884283
2 Hessian update information:
2 * Change: RMS: 0.00032, max: 0.0124
2 Trust update: Fletcher's parameter: -0.589
2 Linear interpolation:
2 * Energies: -236.68088, -236.68181
2 * Derivatives: -0.000568, 0.00214
2 * Cubic interpolation was performed: t = 0.805
2 * Interpolated energy: -236.68201
2 Minimization on sphere was performed:
2 * Trust radius: 0.075
2 * Number of negative eigenvalues: 0
2 * Lowest eigenvalue: 0.00496
2 * lambda: -0.0423
2 Quadratic step: RMS: 0.00403, max: 0.013
2 * Predicted energy change: -0.000443
2 Total step: RMS: 0.00994, max: 0.0352
2 Perfect transformation to cartesians in 4 iterations
2 * RMS(dcart): 1.88e-07, RMS(dq): 1.94e-07
2 Convergence criteria:
2 * Gradient RMS: 0.000938 > 0.0003 => no
2 * Gradient maximum: 0.00331 > 0.00045 => no
2 * Minimization on sphere: Minimization on sphere => no
New geometry (unit Bohr)
   1 B     -9.367049202782  -5.141761094819  -0.055038224558
   2 B      1.940860676128   6.468249709327   0.010595873886
   3 B    -11.942657300340  -1.230057769632   0.082247465587
   4 B     -0.244561232634   2.168095927191  -0.036597756420
   5 B     -2.008759876179  -0.892304014226  -0.094694383722
   6 B     -4.941403831265  10.928172441568   0.124988071652
   7 B     -4.632109592904  -4.940471383577  -0.103310405412
   8 B     -0.266929733632  10.662341168607  -0.007922256288
   9 B     -7.148824920315  -0.903184158306  -0.005533877692
  10 B     -2.815170569069   6.616069469972   0.060372370012
  11 B    -10.127660477897   3.084690444764   0.098616493508
  12 C     -5.518677721768   3.165001855783   0.072713509832
  13 B     -7.760158699452   7.192056058324   0.139143518375
  14 B      4.692880352993   2.675110146061  -0.003236816997
  15 B      0.031581710120  -5.410786210366  -0.134013625672
  16 B      2.512317526163  -1.453889087851  -0.096069834184
  17 B      4.788900766254  -5.556430813638  -0.150813806448
  18 B      7.204465393274  -1.366513424658  -0.073254637346
  19 N     -6.977922812281  -6.316520550727  -0.119403880345
  20 N      1.950837199069   9.186187696298  -0.037064632449
  21 N     -9.465765066216  -2.405606446636   0.011070753010
  22 N     -0.493565999138   5.030753898697   0.012397700816
  23 N    -12.270710761703   1.462695614810   0.118793358010
  24 N     -7.433507395397   9.860144700762   0.169555302452
  25 N     -4.612609322188  -2.114397580169  -0.069078160004
  26 N     -2.680560734053   9.374124309468   0.069093142509
  27 N      4.409128025300   5.337959427773   0.045380572443
  28 N     -2.413521528316  -6.505347194836  -0.130835817888
  29 N     -7.671383185704   1.847931756237   0.047851243087
  30 N     -5.457879923205   5.687783506168   0.099334550451
  31 N    -10.100361906623   5.804857741191   0.143310389241
  32 N      2.386398424814   1.247398994570  -0.043251500114
  33 N      2.380546036614  -6.798359423872  -0.163622144831
  34 N      7.072409117343   1.339102267337  -0.018618720080
  35 N      0.109197945603  -2.699021120158  -0.107304226558
  36 N      4.878706984000  -2.817015603580  -0.118752307854
  37 H     -8.902494196707  11.044122446489   0.189764677487
  38 H    -11.736757369632   6.748022674320   0.174090045856
  39 H    -14.032629155635   2.136830274811   0.156628770285
  40 H    -13.770386346364  -2.543847755666   0.112245927786
  41 H    -11.249383753679  -6.374427440554  -0.057583207833
  42 H     -6.894442844689  -8.202946367992  -0.150900198632
  43 H     -2.632656357887  -8.381054836409  -0.139828730198
  44 H      2.369125104989  -8.689190463570  -0.161766167284
  45 H      6.690979349338  -6.770173270164  -0.142367811832
  46 H      9.208460526184  -2.408136183054  -0.052649817922
  47 H      8.701519766581   2.296246233547   0.030374112771
  48 H      5.917973510983   6.472737401311   0.077256556431
  49 H      3.620696054879  10.066535338458  -0.091264891935
  50 H     -0.141590822439  12.907160352121  -0.067357911378
  51 H     -4.717405961328  13.166017414005   0.117743430916


******** <class 'pyscf.scf.hf.as_scanner.<locals>.SCF_Scanner'> flags ********
method = SCF_Scanner-RHF
initial guess = minao
damping factor = 0
level shift factor = 0
DIIS = <class 'pyscf.scf.diis.CDIIS'>
DIIS start cycle = 1
DIIS space = 8
SCF tol = 1e-09
SCF gradient tol = None
max. SCF cycles = 50
direct_scf = False
chkfile to save SCF result = /tmp/tmp5feegitr
max_memory 24000 MB (current use 1060 MB)
Set gradient conv threshold to 3.16228e-05
init E= -236.671975846758
  HOMO = -0.280354505359606  LUMO = 0.101525590186144
cycle= 1 E= -236.68081530493  delta_E= -0.00884  |g|= 0.0178  |ddm|= 0.116
  HOMO = -0.27914178299126  LUMO = 0.102974057924289
cycle= 2 E= -236.681009094623  delta_E= -0.000194  |g|= 0.00638  |ddm|= 0.0278
  HOMO = -0.279283866282474  LUMO = 0.102660186451909
cycle= 3 E= -236.681042371347  delta_E= -3.33e-05  |g|= 0.00198  |ddm|= 0.0158
  HOMO = -0.279251979903831  LUMO = 0.102784756305866
cycle= 4 E= -236.681044226578  delta_E= -1.86e-06  |g|= 0.000744  |ddm|= 0.00305
  HOMO = -0.279232553658147  LUMO = 0.102809323310191
cycle= 5 E= -236.681044863116  delta_E= -6.37e-07  |g|= 0.000278  |ddm|= 0.00258
  HOMO = -0.279238612009317  LUMO = 0.10279204446116
cycle= 6 E= -236.681044965165  delta_E= -1.02e-07  |g|= 0.000147  |ddm|= 0.001
  HOMO = -0.279245226406853  LUMO = 0.102788418742358
cycle= 7 E= -236.681045000574  delta_E= -3.54e-08  |g|= 6.43e-05  |ddm|= 0.000676
  HOMO = -0.2792394171169  LUMO = 0.102794240534846
cycle= 8 E= -236.681045009067  delta_E= -8.49e-09  |g|= 2.11e-05  |ddm|= 0.000395
  HOMO = -0.279241293143241  LUMO = 0.102792423060568
cycle= 9 E= -236.681045009892  delta_E= -8.25e-10  |g|= 6.84e-06  |ddm|= 0.000129
  HOMO = -0.279241103609371  LUMO = 0.102792344979345
Extra cycle  E= -236.681045009936  delta_E= -4.43e-11  |g|= 4.03e-06  |ddm|= 1.73e-05
converged SCF energy = -236.681045009936


******** <class 'pyscf.grad.rhf.as_scanner.<locals>.SCF_GradScanner'> for <class 'pyscf.scf.hf.as_scanner.<locals>.SCF_Scanner'> ********
max_memory 24000 MB (current use 18537 MB)
--------------- SCF_Scanner gradients ---------------
         x                y                z
0 B     0.0011152279    -0.0006701119     0.0001447753
1 B     0.0006835459    -0.0004275028     0.0000518193
2 B     0.0016088607    -0.0002869958    -0.0000311287
3 B     0.0012299068     0.0004132110     0.0004463072
4 B     0.0004077475    -0.0021525216    -0.0031538304
5 B     0.0004213224    -0.0004877977     0.0005415132
6 B     0.0009514538    -0.0001908570     0.0006788073
7 B     0.0002808720    -0.0001999162     0.0010010871
8 B     0.0016465759    -0.0007196142     0.0001422733
9 B     0.0016285068    -0.0010837124    -0.0003054292
10 B     0.0007393974    -0.0004463721    -0.0003789280
11 C     0.0001503016    -0.0000419949     0.0000077862
12 B     0.0007637403    -0.0005408463    -0.0000796912
13 B     0.0011829495    -0.0005031020    -0.0002762723
14 B     0.0011697855    -0.0005248957     0.0003304189
15 B     0.0007610018    -0.0003112595    -0.0002773127
16 B     0.0011452944    -0.0004887445    -0.0008930919
17 B     0.0006206312    -0.0002741244    -0.0011880637
18 N     0.0003981915    -0.0007316022    -0.0013173997
19 N     0.0013694014    -0.0009367480    -0.0008401430
20 N     0.0003924559    -0.0003059595     0.0003759371
21 N     0.0008537188    -0.0009961015     0.0000153474
22 N     0.0007600930    -0.0000406192     0.0005714921
23 N     0.0007767100    -0.0004487185     0.0009028650
24 N     0.0001799052    -0.0003836287     0.0006677939
25 N     0.0011104488    -0.0003958744     0.0001259398
26 N     0.0010147659    -0.0005173558     0.0009026406
27 N     0.0008223279    -0.0007335373    -0.0004449046
28 N     0.0009007936    -0.0002814099    -0.0005209125
29 N     0.0006348342    -0.0007291097     0.0007437752
30 N     0.0007081479    -0.0003414478     0.0003283769
31 N     0.0014622764    -0.0006906415     0.0005223305
32 N     0.0005162664    -0.0001087984    -0.0010317910
33 N     0.0010311509    -0.0003666792    -0.0004016223
34 N     0.0005402330     0.0005336706     0.0018445764
35 N     0.0009093472    -0.0003965396     0.0002013381
36 H     0.0010003389    -0.0003787483    -0.0002588576
37 H     0.0009152455    -0.0005126111    -0.0001576604
38 H     0.0007799001    -0.0007156616    -0.0001712443
39 H     0.0003345750    -0.0007518813     0.0001528052
40 H     0.0006895028    -0.0004915715    -0.0001222689
41 H     0.0008688622    -0.0004969248     0.0002123651
42 H     0.0007678246    -0.0005916316     0.0002166604
43 H     0.0008850435    -0.0009237297     0.0003756458
44 H     0.0004681132    -0.0003422429     0.0004899711
45 H     0.0010084238    -0.0006191629     0.0006284984
46 H     0.0008911249    -0.0004971374     0.0002890878
47 H     0.0007098779    -0.0003543584     0.0001543810
48 H     0.0006753140    -0.0002181117    -0.0001546064
49 H     0.0009943572    -0.0006567262    -0.0006355031
50 H     0.0009980642    -0.0004642096    -0.0003409147
----------------------------------------------
3 Energy: -236.68104501
3 Hessian update information:
3 * Change: RMS: 0.000246, max: 0.00689
3 Trust update: Fletcher's parameter: 0.363
3 Linear interpolation:
3 * Energies: -236.68105, -236.68181
3 * Derivatives: 0.000269, 0.00123
3 * Cubic interpolation was performed: t = 0.86
3 * Interpolated energy: -236.6819
3 Minimization on sphere was performed:
3 * Trust radius: 0.075
3 * Number of negative eigenvalues: 0
3 * Lowest eigenvalue: 0.00497
3 * lambda: -0.0503
3 Quadratic step: RMS: 0.00403, max: 0.0128
3 * Predicted energy change: -0.000494
3 Total step: RMS: 0.00209, max: 0.00772
3 Perfect transformation to cartesians in 3 iterations
3 * RMS(dcart): 3.22e-08, RMS(dq): 3.3e-08
3 Convergence criteria:
3 * Gradient RMS: 0.000762 > 0.0003 => no
3 * Gradient maximum: 0.00315 > 0.00045 => no
3 * Minimization on sphere: Minimization on sphere => no
New geometry (unit Bohr)
   1 B     -9.364796577151  -5.141567481423  -0.060313062795
   2 B      1.939075249609   6.469542048081   0.014815724706
   3 B    -11.939748434681  -1.230537909054   0.079540779118
   4 B     -0.249542120476   2.171329893969  -0.034232000125
   5 B     -2.006964613584  -0.891662989319  -0.098199056577
   6 B     -4.942089079258  10.930517959787   0.131691033817
   7 B     -4.629992193329  -4.939690997122  -0.102036420848
   8 B     -0.266262190552  10.664859944621  -0.013327002937
   9 B     -7.146030695698  -0.903442506904  -0.006206540682
  10 B     -2.815468540786   6.620458911809   0.071170857580
  11 B    -10.123384612132   3.083796237372   0.097093916955
  12 C     -5.513942766576   3.165246418702   0.077812803786
  13 B     -7.758679371369   7.192072603427   0.149191201902
  14 B      4.686155836105   2.673374522242  -0.002916975714
  15 B      0.031668774668  -5.413098310908  -0.130480031472
  16 B      2.509609704864  -1.455200606654  -0.098563315758
  17 B      4.788062101135  -5.557809142692  -0.153671661719
  18 B      7.200457354881  -1.367360374823  -0.080161044882
  19 N     -6.975337685777  -6.315028156935  -0.125471277873
  20 N      1.950270796389   9.187076791489  -0.043700966632
  21 N     -9.462887728686  -2.405802124935   0.009193101101
  22 N     -0.495696347258   5.034325058496   0.019145550660
  23 N    -12.266621234465   1.462071006956   0.115339905975
  24 N     -7.433237690078   9.860181230296   0.181400015145
  25 N     -4.609891865412  -2.114101259904  -0.070287799565
  26 N     -2.680531605647   9.378118951487   0.076974976125
  27 N      4.405500520024   5.336183693599   0.051706940010
  28 N     -2.413252535518  -6.506012171365  -0.125731369832
  29 N     -7.666902071019   1.847589037450   0.047363872596
  30 N     -5.456086138196   5.688713475847   0.111506565927
  31 N    -10.097711265889   5.803551873039   0.145496537134
  32 N      2.379601976880   1.246533253849  -0.042274168130
  33 N      2.380524625454  -6.799923764595  -0.162499149735
  34 N      7.065331768777   1.337575265604  -0.024523118528
  35 N      0.108366715732  -2.702135408218  -0.104456151867
  36 N      4.875933243783  -2.818565850576  -0.125422246777
  37 H     -8.903021240875  11.043481739484   0.194881947865
  38 H    -11.734780606446   6.746027900742   0.172418121187
  39 H    -14.028566621808   2.136462243381   0.150604457244
  40 H    -13.767145512835  -2.544471937169   0.108386996003
  41 H    -11.246986577349  -6.374427005864  -0.067786379568
  42 H     -6.891530815488  -8.201430115184  -0.156061226883
  43 H     -2.633354333278  -8.381352670031  -0.132135167235
  44 H      2.369616468845  -8.689810887474  -0.152126882660
  45 H      6.690345095634  -6.771259247182  -0.136007001527
  46 H      9.204937327346  -2.407671457643  -0.052995462435
  47 H      8.693962708319   2.295120790796   0.028954447198
  48 H      5.915670763850   6.469264102820   0.082656277563
  49 H      3.620321686962  10.066500874503  -0.108101787754
  50 H     -0.139142202054  12.909061669912  -0.090059714663
  51 H     -4.718341576382  13.168281951722   0.113833040102


******** <class 'pyscf.scf.hf.as_scanner.<locals>.SCF_Scanner'> flags ********
method = SCF_Scanner-RHF
initial guess = minao
damping factor = 0
level shift factor = 0
DIIS = <class 'pyscf.scf.diis.CDIIS'>
DIIS start cycle = 1
DIIS space = 8
SCF tol = 1e-09
SCF gradient tol = None
max. SCF cycles = 50
direct_scf = False
chkfile to save SCF result = /tmp/tmp5feegitr
max_memory 24000 MB (current use 1078 MB)
Set gradient conv threshold to 3.16228e-05
init E= -236.685652292046
  HOMO = -0.278636714960446  LUMO = 0.103267137634996
cycle= 1 E= -236.681291526566  delta_E= 0.00436  |g|= 0.00297  |ddm|= 0.0226
  HOMO = -0.279437144573549  LUMO = 0.102636109977993
cycle= 2 E= -236.681296426546  delta_E= -4.9e-06  |g|= 0.00113  |ddm|= 0.00556
  HOMO = -0.279252888823755  LUMO = 0.102747777223074
cycle= 3 E= -236.681297166695  delta_E= -7.4e-07  |g|= 0.000588  |ddm|= 0.00237
  HOMO = -0.279292700371049  LUMO = 0.102730070660256
cycle= 4 E= -236.681297305987  delta_E= -1.39e-07  |g|= 0.000105  |ddm|= 0.000961
  HOMO = -0.279320274776718  LUMO = 0.102712209610794
cycle= 5 E= -236.681297315395  delta_E= -9.41e-09  |g|= 3.8e-05  |ddm|= 0.00029
  HOMO = -0.279311548462076  LUMO = 0.102716613433734
cycle= 6 E= -236.681297316495  delta_E= -1.1e-09  |g|= 1.21e-05  |ddm|= 0.000107
  HOMO = -0.279311129925572  LUMO = 0.102717448502459
cycle= 7 E= -236.681297316595  delta_E= -9.98e-11  |g|= 4.23e-06  |ddm|= 3.02e-05
  HOMO = -0.279311814971601  LUMO = 0.102716982395358
Extra cycle  E= -236.681297316611  delta_E= -1.59e-11  |g|= 2.3e-06  |ddm|= 1.03e-05
converged SCF energy = -236.681297316611


******** <class 'pyscf.grad.rhf.as_scanner.<locals>.SCF_GradScanner'> for <class 'pyscf.scf.hf.as_scanner.<locals>.SCF_Scanner'> ********
max_memory 24000 MB (current use 18537 MB)
--------------- SCF_Scanner gradients ---------------
         x                y                z
0 B     0.0010241980    -0.0006862886     0.0003210985
1 B     0.0006457701    -0.0003563149     0.0002028909
2 B     0.0014928904    -0.0003184366     0.0000316545
3 B     0.0008977801     0.0012558611     0.0006127299
4 B     0.0010008618    -0.0016300975    -0.0038921070
5 B     0.0003764184    -0.0005290168     0.0006469918
6 B     0.0009911686    -0.0002547492     0.0009926744
7 B     0.0004185932    -0.0001824700     0.0012982087
8 B     0.0014903239    -0.0006848465     0.0003466815
9 B     0.0015649650    -0.0008250127    -0.0002022641
10 B     0.0008113212    -0.0004259538    -0.0004931946
11 C     0.0009477955    -0.0004994396    -0.0001644253
12 B     0.0007632327    -0.0003917245    -0.0000540727
13 B     0.0009863515    -0.0005311869    -0.0003448359
14 B     0.0011968994    -0.0006617671     0.0003650438
15 B     0.0009327418    -0.0002702654    -0.0004601497
16 B     0.0011593670    -0.0005524478    -0.0013206995
17 B     0.0006112360    -0.0002719867    -0.0015009988
18 N     0.0007517361    -0.0003629676    -0.0018042662
19 N     0.0011745813    -0.0010394076    -0.0010924727
20 N     0.0005017585    -0.0004510100     0.0003218016
21 N     0.0007193287    -0.0004727301    -0.0000623109
22 N     0.0009346123    -0.0000692052     0.0006553376
23 N     0.0008104486    -0.0007103094     0.0012054059
24 N     0.0006168631    -0.0004103051     0.0006957425
25 N     0.0010393015    -0.0002253323     0.0001575860
26 N     0.0009986824    -0.0008248399     0.0010781532
27 N     0.0007152368    -0.0004238363    -0.0005931048
28 N     0.0007848214    -0.0004919494    -0.0007045713
29 N     0.0006732209    -0.0005560625     0.0009926226
30 N     0.0009273842    -0.0006061280     0.0003538511
31 N     0.0004788264    -0.0009022760     0.0007482510
32 N     0.0006133141    -0.0003523426    -0.0012013242
33 N     0.0006304936    -0.0004754719    -0.0006011191
34 N     0.0004958558    -0.0005990993     0.0025837929
35 N     0.0008655915    -0.0006772589     0.0003612617
36 H     0.0009683047    -0.0003216954    -0.0003537608
37 H     0.0008513709    -0.0004340200    -0.0002033331
38 H     0.0007359729    -0.0007448658    -0.0002119866
39 H     0.0003942439    -0.0007546425     0.0001427424
40 H     0.0006849324    -0.0004965950    -0.0001894175
41 H     0.0008589280    -0.0004804605     0.0002860767
42 H     0.0008230647    -0.0004629437     0.0002698073
43 H     0.0009075467    -0.0004279677     0.0004779487
44 H     0.0004617319    -0.0003914074     0.0007069726
45 H     0.0009641792    -0.0006316225     0.0008085065
46 H     0.0008505607    -0.0005727444     0.0003549509
47 H     0.0006967980    -0.0003261296     0.0001472128
48 H     0.0006810792    -0.0001905192    -0.0001795670
49 H     0.0010439017    -0.0006762864    -0.0008245723
50 H     0.0010835727    -0.0004963063    -0.0004591815
----------------------------------------------
4 Energy: -236.681297317
4 Hessian update information:
4 * Change: RMS: 8.31e-05, max: 0.00368
4 Trust update: Fletcher's parameter: 0.511
4 Linear interpolation:
4 * Energies: -236.6813, -236.68181
4 * Derivatives: 0.000358, 0.000964
4 * Cubic interpolation was performed: t = 0.855
4 * Interpolated energy: -236.68188
4 Minimization on sphere was performed:
4 * Trust radius: 0.075
4 * Number of negative eigenvalues: 0
4 * Lowest eigenvalue: 0.00497
4 * lambda: -0.0526
4 Quadratic step: RMS: 0.00403, max: 0.013
4 * Predicted energy change: -0.000513
4 Total step: RMS: 0.000355, max: 0.00147
4 Perfect transformation to cartesians in 2 iterations
4 * RMS(dcart): 5.49e-07, RMS(dq): 3.3e-07
4 Convergence criteria:
4 * Gradient RMS: 0.000825 > 0.0003 => no
4 * Gradient maximum: 0.00389 > 0.00045 => no
4 * Minimization on sphere: Minimization on sphere => no
New geometry (unit Bohr)
   1 B     -9.364766716079  -5.141209589289  -0.061451326430
   2 B      1.938926226795   6.469009034935   0.013477121358
   3 B    -11.940089412050  -1.230496094804   0.082390258219
   4 B     -0.250025800415   2.170696723213  -0.036992906070
   5 B     -2.006827141281  -0.891172346031  -0.102131150810
   6 B     -4.941763012391  10.930106712443   0.131102361121
   7 B     -4.629911782806  -4.939137339040  -0.105352717587
   8 B     -0.266023682203  10.664305918793  -0.016228229406
   9 B     -7.146466488423  -0.903219635761  -0.007524521884
  10 B     -2.815751937412   6.620194966234   0.069369211044
  11 B    -10.123472986763   3.083736396478   0.099327709659
  12 C     -5.514249230666   3.165127346140   0.077034521252
  13 B     -7.758601174948   7.191767836097   0.150349616799
  14 B      4.685672539891   2.673216851244  -0.001768021015
  15 B      0.031604568054  -5.412756019797  -0.132736424564
  16 B      2.509748929894  -1.455272910329  -0.099665307842
  17 B      4.788155542490  -5.557472929873  -0.152875979306
  18 B      7.200687456313  -1.367107545112  -0.076966096178
  19 N     -6.975182019710  -6.314330221640  -0.128402815451
  20 N      1.950240152063   9.186483901940  -0.046354185231
  21 N     -9.463056573147  -2.405580458480   0.009512433071
  22 N     -0.495813766936   5.033935427994   0.017048710439
  23 N    -12.266738403349   1.462014981263   0.119270235422
  24 N     -7.432925190225   9.859776774788   0.182397751527
  25 N     -4.609929654324  -2.113548020788  -0.073433302584
  26 N     -2.680464422115   9.377625331703   0.075266150590
  27 N      4.405241845489   5.335943078752   0.052838374648
  28 N     -2.413248891250  -6.505539405961  -0.128993420125
  29 N     -7.667172239084   1.847579204728   0.047381119730
  30 N     -5.456087605078   5.688480685125   0.111228061391
  31 N    -10.097759278325   5.803429830897   0.148171296497
  32 N      2.379245024968   1.246458742672  -0.043365609357
  33 N      2.380631310020  -6.799350404274  -0.163659363894
  34 N      7.064997317651   1.337684636028  -0.020747003904
  35 N      0.108517318911  -2.702141594800  -0.106866291591
  36 N      4.876217899452  -2.818319816799  -0.124591486139
  37 H     -8.902790978071  11.043029962923   0.196210197314
  38 H    -11.734811882297   6.745965873543   0.176088832292
  39 H    -14.028525019720   2.136789957156   0.155966340599
  40 H    -13.766805813173  -2.544610628573   0.112747951419
  41 H    -11.246607805481  -6.374432486594  -0.067867585220
  42 H     -6.891282571560  -8.200738220817  -0.158954980844
  43 H     -2.633315964763  -8.380835172202  -0.134941484264
  44 H      2.369680633549  -8.689051961713  -0.152366487030
  45 H      6.690572999734  -6.771147954998  -0.132668425524
  46 H      9.205106577134  -2.407087362215  -0.046074790277
  47 H      8.693419690642   2.295461037818   0.035428274237
  48 H      5.915590317017   6.468771568978   0.085234392536
  49 H      3.620482461418  10.065559129137  -0.111098151613
  50 H     -0.139045516817  12.908558764977  -0.094531623712
  51 H     -4.717739981415  13.167804519400   0.112200851213


******** <class 'pyscf.scf.hf.as_scanner.<locals>.SCF_Scanner'> flags ********
method = SCF_Scanner-RHF
initial guess = minao
damping factor = 0
level shift factor = 0
DIIS = <class 'pyscf.scf.diis.CDIIS'>
DIIS start cycle = 1
DIIS space = 8
SCF tol = 1e-09
SCF gradient tol = None
max. SCF cycles = 50
direct_scf = False
chkfile to save SCF result = /tmp/tmp5feegitr
max_memory 24000 MB (current use 1078 MB)
Set gradient conv threshold to 3.16228e-05
init E= -236.682142491209
  HOMO = -0.279214294668396  LUMO = 0.102800475253586
cycle= 1 E= -236.681298850348  delta_E= 0.000844  |g|= 0.000832  |ddm|= 0.00508
  HOMO = -0.279378487243209  LUMO = 0.102662279223111
cycle= 2 E= -236.681299251465  delta_E= -4.01e-07  |g|= 0.000314  |ddm|= 0.00141
  HOMO = -0.279329726077  LUMO = 0.102695702664788
cycle= 3 E= -236.68129931318  delta_E= -6.17e-08  |g|= 0.000159  |ddm|= 0.000642
  HOMO = -0.279340965536802  LUMO = 0.102691307104251
cycle= 4 E= -236.68129932359  delta_E= -1.04e-08  |g|= 3.42e-05  |ddm|= 0.000241
  HOMO = -0.279350070089514  LUMO = 0.102683852465217
cycle= 5 E= -236.681299324796  delta_E= -1.21e-09  |g|= 1.49e-05  |ddm|= 0.000107
  HOMO = -0.279345683542792  LUMO = 0.102686727157795
cycle= 6 E= -236.681299325072  delta_E= -2.76e-10  |g|= 6.35e-06  |ddm|= 5.55e-05
  HOMO = -0.27934674774226  LUMO = 0.102686374367186
Extra cycle  E= -236.681299325116  delta_E= -4.46e-11  |g|= 4.12e-06  |ddm|= 1.74e-05
converged SCF energy = -236.681299325116


******** <class 'pyscf.grad.rhf.as_scanner.<locals>.SCF_GradScanner'> for <class 'pyscf.scf.hf.as_scanner.<locals>.SCF_Scanner'> ********
max_memory 24000 MB (current use 18536 MB)
--------------- SCF_Scanner gradients ---------------
         x                y                z
0 B     0.0009862155    -0.0006721062     0.0002811600
1 B     0.0006889983    -0.0003899341     0.0001817116
2 B     0.0013459368    -0.0003400896     0.0000126257
3 B     0.0008103750     0.0010538525     0.0006032771
4 B     0.0010684176    -0.0014757805    -0.0040078772
5 B     0.0004059582    -0.0005380154     0.0006824819
6 B     0.0009806867    -0.0002917106     0.0009796017
7 B     0.0005014366    -0.0002211240     0.0013294616
8 B     0.0013577342    -0.0006601945     0.0003055331
9 B     0.0014150350    -0.0007676560    -0.0002643268
10 B     0.0008525113    -0.0004198237    -0.0005000073
11 C     0.0008344234    -0.0004555365    -0.0001642776
12 B     0.0007741465    -0.0004249323    -0.0000686181
13 B     0.0009450118    -0.0005396614    -0.0003765194
14 B     0.0011397109    -0.0006192154     0.0003884926
15 B     0.0009450086    -0.0003103238    -0.0004715356
16 B     0.0010757706    -0.0005142769    -0.0013608812
17 B     0.0006764864    -0.0002831552    -0.0016215386
18 N     0.0008070650    -0.0002902086    -0.0018066135
19 N     0.0011017550    -0.0010464018    -0.0011070172
20 N     0.0005838725    -0.0004466436     0.0003897084
21 N     0.0008361580    -0.0004274348    -0.0000270630
22 N     0.0009676310    -0.0001331871     0.0006925459
23 N     0.0008528158    -0.0007772876     0.0012177191
24 N     0.0006292714    -0.0003979277     0.0007359752
25 N     0.0009762428    -0.0002966688     0.0001683753
26 N     0.0009397456    -0.0008054679     0.0011054872
27 N     0.0007313153    -0.0004069422    -0.0006174644
28 N     0.0008093550    -0.0005401422    -0.0006906488
29 N     0.0007729649    -0.0005462277     0.0010221254
30 N     0.0009325201    -0.0006264266     0.0003781716
31 N     0.0004435026    -0.0008192812     0.0007684462
32 N     0.0006586147    -0.0003797579    -0.0012479029
33 N     0.0005880855    -0.0005009105    -0.0005490784
34 N     0.0005904674    -0.0008103951     0.0026508138
35 N     0.0008798990    -0.0006621788     0.0004351866
36 H     0.0009469502    -0.0003210356    -0.0003620949
37 H     0.0008330120    -0.0004293856    -0.0002113376
38 H     0.0007365556    -0.0007270943    -0.0002204844
39 H     0.0004956239    -0.0007041660     0.0001488251
40 H     0.0007135250    -0.0004897111    -0.0001791706
41 H     0.0008621337    -0.0004829470     0.0002986755
42 H     0.0008358181    -0.0004369553     0.0002805092
43 H     0.0009013140    -0.0003268230     0.0004931788
44 H     0.0005187623    -0.0004218285     0.0007297494
45 H     0.0009298500    -0.0006056687     0.0008574890
46 H     0.0008590312    -0.0005741015     0.0003668823
47 H     0.0007180970    -0.0003330133     0.0001516890
48 H     0.0006978142    -0.0001988572    -0.0001755406
49 H     0.0010409524    -0.0006500604    -0.0008425634
50 H     0.0010986884    -0.0005054846    -0.0004769016
----------------------------------------------
5 Energy: -236.681299325
5 Hessian update information:
5 * Change: RMS: 4.21e-05, max: 0.00213
5 Trust update: Fletcher's parameter: 0.00392
5 Linear interpolation:
5 * Energies: -236.6813, -236.68181
5 * Derivatives: 0.000349, 0.000944
5 * Cubic interpolation was performed: t = 0.856
5 * Interpolated energy: -236.68188
5 Minimization on sphere was performed:
5 * Trust radius: 0.019
5 * Number of negative eigenvalues: 0
5 * Lowest eigenvalue: 0.00497
5 * lambda: -0.457
5 Quadratic step: RMS: 0.00101, max: 0.00446
5 * Predicted energy change: -0.000201
5 Total step: RMS: 0.00324, max: 0.0112
5 Perfect transformation to cartesians in 3 iterations
5 * RMS(dcart): 1.66e-07, RMS(dq): 1.59e-07
5 Convergence criteria:
5 * Gradient RMS: 0.000827 > 0.0003 => no
5 * Gradient maximum: 0.00401 > 0.00045 => no
5 * Minimization on sphere: Minimization on sphere => no
New geometry (unit Bohr)
   1 B     -9.360931684720  -5.142327964042  -0.079058978387
   2 B      1.936724923427   6.469423288378   0.009154541415
   3 B    -11.933013677288  -1.231549296032   0.085979534817
   4 B     -0.255951164367   2.177924624971  -0.040641209418
   5 B     -2.004431545367  -0.893512051796  -0.116433603996
   6 B     -4.942200433371  10.930317564488   0.139601678784
   7 B     -4.627092939355  -4.936727365451  -0.117665882312
   8 B     -0.266517569507  10.665440215022  -0.036480543658
   9 B     -7.140180975540  -0.904206217111  -0.012996563066
  10 B     -2.812822043858   6.622613815980   0.076988420754
  11 B    -10.118770569545   3.083181935140   0.108586590539
  12 C     -5.510027526011   3.166154033637   0.082713760618
  13 B     -7.757077615481   7.192105625481   0.171767409837
  14 B      4.678710918179   2.671239623825   0.000623396744
  15 B      0.031716885355  -5.413930660880  -0.132297180227
  16 B      2.505260952734  -1.455285193072  -0.100684134183
  17 B      4.784105894286  -5.556521791164  -0.146062835855
  18 B      7.193576291192  -1.367268876003  -0.070676625488
  19 N     -6.971351386211  -6.312376805105  -0.152696636329
  20 N      1.949011336709   9.185422589884  -0.070753056366
  21 N     -9.457943688817  -2.406570060482   0.004355260335
  22 N     -0.497129691214   5.038277588176   0.018115222094
  23 N    -12.261203713892   1.460610711020   0.130290441915
  24 N     -7.432272360657   9.859997624412   0.205182133127
  25 N     -4.606795366961  -2.113552095925  -0.084826891938
  26 N     -2.679999994948   9.380163047506   0.076948122301
  27 N      4.401012811562   5.333668014858   0.055807843014
  28 N     -2.413119886292  -6.504547766193  -0.136580720472
  29 N     -7.662139570036   1.846868581128   0.048541330480
  30 N     -5.453510611183   5.689562240829   0.127631137242
  31 N    -10.094536697731   5.802014586863   0.166549988616
  32 N      2.370944920530   1.246662393824  -0.043927174756
  33 N      2.378618247615  -6.797860849147  -0.159609410039
  34 N      7.056084738816   1.335639603380  -0.014791955062
  35 N      0.107119687741  -2.705362308046  -0.106445981962
  36 N      4.871426994062  -2.818663474561  -0.121664332521
  37 H     -8.899977986880  11.046392578610   0.214143720747
  38 H    -11.732123077155   6.744225556452   0.195348160800
  39 H    -14.025514011223   2.128845674017   0.170407728447
  40 H    -13.762561565874  -2.547830894463   0.117644578241
  41 H    -11.244273351260  -6.375059730029  -0.090286574431
  42 H     -6.885711949311  -8.198663599820  -0.184713201235
  43 H     -2.634954988393  -8.379168537878  -0.141250060434
  44 H      2.369619497795  -8.686054701379  -0.138314074837
  45 H      6.682325914477  -6.771311766041  -0.106668197000
  46 H      9.198543349908  -2.407991631981  -0.019551569608
  47 H      8.684670803767   2.292185408576   0.051932988039
  48 H      5.909809240609   6.468401754929   0.087738489872
  49 H      3.615895779812  10.069729108115  -0.151065406839
  50 H     -0.132389028891  12.907097764631  -0.141535528772
  51 H     -4.711166648031  13.167135157977   0.103057934942


******** <class 'pyscf.scf.hf.as_scanner.<locals>.SCF_Scanner'> flags ********
method = SCF_Scanner-RHF
initial guess = minao
damping factor = 0
level shift factor = 0
DIIS = <class 'pyscf.scf.diis.CDIIS'>
DIIS start cycle = 1
DIIS space = 8
SCF tol = 1e-09
SCF gradient tol = None
max. SCF cycles = 50
direct_scf = False
chkfile to save SCF result = /tmp/tmp5feegitr
max_memory 24000 MB (current use 1056 MB)
Set gradient conv threshold to 3.16228e-05
init E= -236.693134494862
  HOMO = -0.277678080946638  LUMO = 0.104152844037951
cycle= 1 E= -236.681370424894  delta_E= 0.0118  |g|= 0.0062  |ddm|= 0.0381
  HOMO = -0.279107852528601  LUMO = 0.102586690225444
cycle= 2 E= -236.681387676492  delta_E= -1.73e-05  |g|= 0.00296  |ddm|= 0.0124
  HOMO = -0.278971632338495  LUMO = 0.102814042960246
cycle= 3 E= -236.681390639211  delta_E= -2.96e-06  |g|= 0.00117  |ddm|= 0.00376
  HOMO = -0.27895247853946  LUMO = 0.102843731994642
cycle= 4 E= -236.6813914725  delta_E= -8.33e-07  |g|= 0.000239  |ddm|= 0.00247
  HOMO = -0.278969178274247  LUMO = 0.10281262618834
cycle= 5 E= -236.681391519169  delta_E= -4.67e-08  |g|= 0.000103  |ddm|= 0.000596
  HOMO = -0.278973954806024  LUMO = 0.102810231144315
cycle= 6 E= -236.681391529434  delta_E= -1.03e-08  |g|= 4.06e-05  |ddm|= 0.000318
  HOMO = -0.278969955239717  LUMO = 0.102813688223018
cycle= 7 E= -236.681391531243  delta_E= -1.81e-09  |g|= 1.79e-05  |ddm|= 0.000133
  HOMO = -0.278970417714965  LUMO = 0.102813676413954
cycle= 8 E= -236.681391531808  delta_E= -5.65e-10  |g|= 7.78e-06  |ddm|= 8.71e-05
  HOMO = -0.278970446557848  LUMO = 0.102813406749671
Extra cycle  E= -236.681391531878  delta_E= -6.96e-11  |g|= 5.14e-06  |ddm|= 2.13e-05
converged SCF energy = -236.681391531878


******** <class 'pyscf.grad.rhf.as_scanner.<locals>.SCF_GradScanner'> for <class 'pyscf.scf.hf.as_scanner.<locals>.SCF_Scanner'> ********
max_memory 24000 MB (current use 18527 MB)
--------------- SCF_Scanner gradients ---------------
         x                y                z
0 B     0.0013920812    -0.0010000125     0.0003326061
1 B     0.0000477845    -0.0005789376     0.0004121453
2 B     0.0023616209     0.0001618117    -0.0000203573
3 B     0.0003969032     0.0034970488     0.0009707133
4 B     0.0018969040    -0.0022768647    -0.0052935712
5 B    -0.0002154844    -0.0007657457     0.0011344080
6 B     0.0013062784     0.0001504335     0.0013814713
7 B     0.0001974099     0.0002701557     0.0019490341
8 B     0.0023380490    -0.0010175212     0.0004439618
9 B     0.0027779401    -0.0012656118    -0.0002734559
10 B     0.0009624343    -0.0000942583    -0.0006658907
11 C     0.0011603313    -0.0005524525    -0.0003402869
12 B     0.0005322458    -0.0001636303    -0.0000011767
13 B     0.0011339150    -0.0007611308    -0.0005359508
14 B     0.0018493345    -0.0006590538     0.0005734343
15 B     0.0010059586    -0.0003640838    -0.0007573940
16 B     0.0011543311    -0.0007294686    -0.0020547531
17 B    -0.0000053181     0.0002711750    -0.0025230779
18 N     0.0008828549     0.0003391342    -0.0023929048
19 N     0.0012574842    -0.0019301515    -0.0016112034
20 N     0.0000851646    -0.0003833052     0.0004984147
21 N     0.0007527833     0.0003563645    -0.0000539253
22 N     0.0012360445     0.0002171008     0.0009240313
23 N     0.0009354363    -0.0013598288     0.0014936972
24 N     0.0004489563    -0.0004321898     0.0009302704
25 N     0.0009189081     0.0000949240    -0.0001369379
26 N     0.0010397960    -0.0013858877     0.0012332664
27 N     0.0004127165    -0.0000261816    -0.0010110080
28 N     0.0007852480    -0.0007619233    -0.0009418917
29 N     0.0007172204    -0.0007054291     0.0013152491
30 N     0.0012173427    -0.0010995967     0.0005052770
31 N    -0.0007850881    -0.0011616506     0.0009349713
32 N     0.0004225770    -0.0000177963    -0.0014241197
33 N    -0.0002477770    -0.0008135622    -0.0004599669
34 N     0.0003089019    -0.0022653334     0.0037030198
35 N     0.0011525142    -0.0011198538     0.0011290621
36 H     0.0010196972    -0.0000211714    -0.0005018230
37 H     0.0007315414    -0.0002722410    -0.0002830690
38 H     0.0005402837    -0.0010481468    -0.0002848672
39 H    -0.0002356936    -0.0012772841     0.0001756893
40 H     0.0004257389    -0.0005979823    -0.0002101567
41 H     0.0008633014    -0.0004718645     0.0004219767
42 H     0.0008678353    -0.0002086597     0.0003630619
43 H     0.0009793360     0.0004358806     0.0006110378
44 H    -0.0002118319    -0.0001791958     0.0010494479
45 H     0.0011316808    -0.0008090169     0.0012548063
46 H     0.0008393354    -0.0007232562     0.0004615896
47 H     0.0005182170    -0.0001398778     0.0001514047
48 H     0.0004940855     0.0002323233    -0.0001885867
49 H     0.0013180402    -0.0010118574    -0.0011476799
50 H     0.0015243910    -0.0005708497    -0.0007352197
----------------------------------------------
6 Energy: -236.681391532
6 Hessian update information:
6 * Change: RMS: 0.000127, max: 0.00331
6 Trust update: Fletcher's parameter: 0.46
6 Linear interpolation:
6 * Energies: -236.68139, -236.68181
6 * Derivatives: 0.000252, 0.000406
6 * Cubic interpolation was performed: t = 0.904
6 * Interpolated energy: -236.68183
6 Minimization on sphere was performed:
6 * Trust radius: 0.019
6 * Number of negative eigenvalues: 0
6 * Lowest eigenvalue: 0.00497
6 * lambda: -0.501
6 Quadratic step: RMS: 0.00101, max: 0.00457
6 * Predicted energy change: -0.000218
6 Total step: RMS: 0.000549, max: 0.00188
6 Perfect transformation to cartesians in 2 iterations
6 * RMS(dcart): 6.26e-07, RMS(dq): 4.88e-07
6 Convergence criteria:
6 * Gradient RMS: 0.00114 > 0.0003 => no
6 * Gradient maximum: 0.00529 > 0.00045 => no
6 * Minimization on sphere: Minimization on sphere => no
New geometry (unit Bohr)
   1 B     -9.360279252021  -5.142636650923  -0.081915725873
   2 B      1.936368482198   6.469683242873   0.008481928867
   3 B    -11.931718296272  -1.231824635840   0.086611138921
   4 B     -0.257182314087   2.179483701655  -0.041273203722
   5 B     -2.004034667703  -0.893824097907  -0.118852780293
   6 B     -4.942360747499  10.930509094543   0.140995066542
   7 B     -4.626629215302  -4.936314491131  -0.119691722997
   8 B     -0.266594079430  10.665871684256  -0.039821381460
   9 B     -7.139036285255  -0.904500515219  -0.013911182119
  10 B     -2.812260467675   6.623316954454   0.078235994789
  11 B    -10.117677331558   3.082944218448   0.110087265222
  12 C     -5.508760710005   3.166141673171   0.083629064501
  13 B     -7.756628042073   7.192069817640   0.175269853602
  14 B      4.677336667385   2.670899901432   0.001054270427
  15 B      0.031639226102  -5.414158541604  -0.132269519044
  16 B      2.504354607733  -1.455206652805  -0.100909903830
  17 B      4.783298801973  -5.556431593734  -0.145003694226
  18 B      7.192190211206  -1.367387296040  -0.069649048357
  19 N     -6.970671275057  -6.312084773169  -0.156667097730
  20 N      1.948817654157   9.185406749991  -0.074746115085
  21 N     -9.457019658702  -2.406863829814   0.003535638826
  22 N     -0.497385009238   5.039291294967   0.018288093242
  23 N    -12.260025815551   1.460294184319   0.132109359618
  24 N     -7.432130382267   9.859977225205   0.208920422751
  25 N     -4.606220673385  -2.113591850103  -0.086733470490
  26 N     -2.679896714304   9.380878381822   0.077235975487
  27 N      4.400224309146   5.333278910717   0.056398543387
  28 N     -2.413160117819  -6.504380871605  -0.137823213282
  29 N     -7.660953492100   1.846646478980   0.048708694429
  30 N     -5.452848140602   5.689711805074   0.130321058589
  31 N    -10.093711701367   5.801603190458   0.169537289146
  32 N      2.369304102984   1.246778489378  -0.044039368913
  33 N      2.378139247652  -6.797693451835  -0.159003383648
  34 N      7.054326268866   1.335194073116  -0.013778900562
  35 N      0.106733030626  -2.705887460332  -0.106440535541
  36 N      4.870426141974  -2.818783713331  -0.121251273207
  37 H     -8.899519707102  11.046852491734   0.217061871439
  38 H    -11.731415048932   6.743731009353   0.198469121605
  39 H    -14.024778529710   2.127379496781   0.172784799344
  40 H    -13.761796823747  -2.548392857300   0.118533275901
  41 H    -11.243878195939  -6.375266875929  -0.093912047162
  42 H     -6.884685602691  -8.198349516733  -0.188904026561
  43 H     -2.635321192740  -8.378873935437  -0.142246063347
  44 H      2.369481264821  -8.685580411831  -0.136019537269
  45 H      6.680782130925  -6.771430506080  -0.102430090616
  46 H      9.197220594071  -2.408244851189  -0.015158981783
  47 H      8.682941119534   2.291496429273   0.054747587531
  48 H      5.908771573064   6.468305719702   0.088303694054
  49 H      3.615074660741  10.070684297658  -0.157639509510
  50 H     -0.131135430789  12.907061642121  -0.149331552044
  51 H     -4.710229305028  13.167174296275   0.101535404977


******** <class 'pyscf.scf.hf.as_scanner.<locals>.SCF_Scanner'> flags ********
method = SCF_Scanner-RHF
initial guess = minao
damping factor = 0
level shift factor = 0
DIIS = <class 'pyscf.scf.diis.CDIIS'>
DIIS start cycle = 1
DIIS space = 8
SCF tol = 1e-09
SCF gradient tol = None
max. SCF cycles = 50
direct_scf = False
chkfile to save SCF result = /tmp/tmp5feegitr
max_memory 24000 MB (current use 1069 MB)
Set gradient conv threshold to 3.16228e-05
init E= -236.683443781204
  HOMO = -0.278689877691971  LUMO = 0.103064882683186
cycle= 1 E= -236.681423851398  delta_E= 0.00202  |g|= 0.00107  |ddm|= 0.00664
  HOMO = -0.278953304132331  LUMO = 0.102792904299963
cycle= 2 E= -236.681424346942  delta_E= -4.96e-07  |g|= 0.000526  |ddm|= 0.00221
  HOMO = -0.27892662021453  LUMO = 0.102828826382641
cycle= 3 E= -236.681424435831  delta_E= -8.89e-08  |g|= 0.000196  |ddm|= 0.000655
  HOMO = -0.278921914640973  LUMO = 0.102834573432817
cycle= 4 E= -236.6814244599  delta_E= -2.41e-08  |g|= 4.08e-05  |ddm|= 0.00043
  HOMO = -0.278925504004704  LUMO = 0.102829643418514
cycle= 5 E= -236.681424461259  delta_E= -1.36e-09  |g|= 1.74e-05  |ddm|= 0.000103
  HOMO = -0.278926293720988  LUMO = 0.102829158149533
cycle= 6 E= -236.68142446156  delta_E= -3.01e-10  |g|= 6.89e-06  |ddm|= 5.47e-05
  HOMO = -0.278925495665254  LUMO = 0.102829770549685
Extra cycle  E= -236.681424461602  delta_E= -4.16e-11  |g|= 4.16e-06  |ddm|= 1.68e-05
converged SCF energy = -236.681424461602


******** <class 'pyscf.grad.rhf.as_scanner.<locals>.SCF_GradScanner'> for <class 'pyscf.scf.hf.as_scanner.<locals>.SCF_Scanner'> ********
max_memory 24000 MB (current use 18531 MB)
--------------- SCF_Scanner gradients ---------------
         x                y                z
0 B     0.0014520683    -0.0010614399     0.0003407381
1 B    -0.0000607776    -0.0005965767     0.0004499215
2 B     0.0025267256     0.0002381537    -0.0000261708
3 B     0.0002891856     0.0039841180     0.0010331688
4 B     0.0020534979    -0.0024012258    -0.0055056499
5 B    -0.0003366467    -0.0008004374     0.0012089083
6 B     0.0013544985     0.0002285352     0.0014479064
7 B     0.0001322089     0.0003620229     0.0020502779
8 B     0.0024998031    -0.0010826390     0.0004660216
9 B     0.0030112144    -0.0013375244    -0.0002771934
10 B     0.0009679357    -0.0000484152    -0.0006935484
11 C     0.0013838724    -0.0006647158    -0.0003726641
12 B     0.0004919325    -0.0001027319     0.0000097011
13 B     0.0011642891    -0.0007912842    -0.0005624275
14 B     0.0019669749    -0.0006845317     0.0006037382
15 B     0.0010361752    -0.0003489249    -0.0008042219
16 B     0.0011867341    -0.0007687509    -0.0021683019
17 B    -0.0001109098     0.0003619185    -0.0026719667
18 N     0.0009085165     0.0004556689    -0.0024888182
19 N     0.0012912412    -0.0020982119    -0.0016929967
20 N    -0.0000020827    -0.0003864347     0.0005174360
21 N     0.0007188208     0.0004934966    -0.0000565795
22 N     0.0012823828     0.0002877324     0.0009628097
23 N     0.0009498468    -0.0014641306     0.0015411468
24 N     0.0004333089    -0.0004383475     0.0009631350
25 N     0.0009285020     0.0001737367    -0.0001850712
26 N     0.0010632369    -0.0015124592     0.0012561606
27 N     0.0003599949     0.0000508702    -0.0010752033
28 N     0.0007303364    -0.0008101042    -0.0009847932
29 N     0.0006877299    -0.0006785446     0.0013660810
30 N     0.0012918827    -0.0011978220     0.0005254467
31 N    -0.0010114143    -0.0012369347     0.0009621331
32 N     0.0003665168     0.0000013747    -0.0014538341
33 N    -0.0004013937    -0.0008707351    -0.0004472140
34 N     0.0002159649    -0.0025109975     0.0038778624
35 N     0.0011931078    -0.0012115271     0.0012417672
36 H     0.0010333496     0.0000371032    -0.0005253242
37 H     0.0007116536    -0.0002427929    -0.0002949168
38 H     0.0005026316    -0.0011117559    -0.0002957396
39 H    -0.0003580041    -0.0013728575     0.0001803591
40 H     0.0003775903    -0.0006150363    -0.0002154244
41 H     0.0008621882    -0.0004703037     0.0004426429
42 H     0.0008725406    -0.0001647524     0.0003769455
43 H     0.0009958436     0.0005897306     0.0006301304
44 H    -0.0003368405    -0.0001414634     0.0011013455
45 H     0.0011628501    -0.0008450611     0.0013209763
46 H     0.0008304443    -0.0007538392     0.0004773663
47 H     0.0004774456    -0.0001055403     0.0001514705
48 H     0.0004545854     0.0003113256    -0.0001915457
49 H     0.0013687787    -0.0010720440    -0.0011980204
50 H     0.0015998585    -0.0005825838    -0.0007781255
----------------------------------------------
7 Energy: -236.681424462
7 Hessian update information:
7 * Change: RMS: 4.17e-05, max: 0.00109
7 Trust update: Fletcher's parameter: 0.151
7 Linear interpolation:
7 * Energies: -236.68142, -236.68181
7 * Derivatives: 0.000203, 0.00031
7 * Cubic interpolation was performed: t = 0.915
7 * Interpolated energy: -236.68183
7 Minimization on sphere was performed:
7 * Trust radius: 0.0047
7 * Number of negative eigenvalues: 0
7 * Lowest eigenvalue: 0.00497
7 * lambda: -2.77
7 Quadratic step: RMS: 0.000252, max: 0.00129
7 * Predicted energy change: -6.42e-05
7 Total step: RMS: 0.000816, max: 0.00344
7 Perfect transformation to cartesians in 3 iterations
7 * RMS(dcart): 1.31e-09, RMS(dq): 1.22e-09
7 Convergence criteria:
7 * Gradient RMS: 0.00121 > 0.0003 => no
7 * Gradient maximum: 0.00551 > 0.00045 => no
7 * Minimization on sphere: Minimization on sphere => no
New geometry (unit Bohr)
   1 B     -9.356998072180  -5.143477146089  -0.085056565157
   2 B      1.934613412498   6.470025759195   0.007420399195
   3 B    -11.926940542451  -1.232973249203   0.087163273934
   4 B     -0.261040891459   2.184227991885  -0.041893782836
   5 B     -2.003556122377  -0.894118543864  -0.121184977650
   6 B     -4.942226668378  10.930587253715   0.142414458686
   7 B     -4.624536189389  -4.934357821732  -0.121951905050
   8 B     -0.266186322205  10.667031083056  -0.043182567964
   9 B     -7.134791497551  -0.905479482295  -0.014956286298
  10 B     -2.810100148094   6.625233278241   0.079203256952
  11 B    -10.113487218953   3.081939198059   0.111812592983
  12 C     -5.504227439608   3.165876081678   0.084334130872
  13 B     -7.754741875085   7.191468820157   0.178855531021
  14 B      4.671978050158   2.669504618836   0.001276393294
  15 B      0.031048941276  -5.413619918279  -0.132135038599
  16 B      2.500351825752  -1.455178549751  -0.100819166037
  17 B      4.779397030470  -5.555490092964  -0.143381892408
  18 B      7.186079994085  -1.367755261382  -0.068240347248
  19 N     -6.967397626771  -6.310601627378  -0.160868513310
  20 N      1.948437243062   9.184981951427  -0.078930222962
  21 N     -9.453454015930  -2.407775269567   0.002529993427
  22 N     -0.498468186484   5.042546536409   0.018251899869
  23 N    -12.255498030861   1.458953598230   0.134152536186
  24 N     -7.431189160343   9.859270200139   0.212715187341
  25 N     -4.604139308479  -2.113471895195  -0.088712537553
  26 N     -2.679183132931   9.382708513556   0.077282105050
  27 N      4.397028523717   5.331503233997   0.056293489090
  28 N     -2.413027695636  -6.502582406448  -0.139380184328
  29 N     -7.656514709784   1.845670225851   0.048869267696
  30 N     -5.450183967803   5.689902355964   0.132819399423
  31 N    -10.090549074621   5.799896293722   0.172849095714
  32 N      2.363351547250   1.247302525132  -0.044150804131
  33 N      2.375698165522  -6.795619551800  -0.158008852508
  34 N      7.047206286567   1.333368792110  -0.012641245307
  35 N      0.105002075414  -2.707108077415  -0.106266764865
  36 N      4.866123727642  -2.818966667888  -0.120204689778
  37 H     -8.898228569365  11.046996451783   0.220271437096
  38 H    -11.728795797971   6.741720901571   0.202134333634
  39 H    -14.021205580629   2.123782679577   0.175557634877
  40 H    -13.758799212238  -2.550933608436   0.119265850894
  41 H    -11.241049828486  -6.376633452433  -0.097764711487
  42 H     -6.880216331409  -8.196779728248  -0.193404929729
  43 H     -2.635852194498  -8.376521296670  -0.143750157857
  44 H      2.367538983279  -8.681948247443  -0.133625934482
  45 H      6.674644219921  -6.770651054216  -0.097683749293
  46 H      9.191776637524  -2.408739941976  -0.010295272369
  47 H      8.675957753482   2.289008966026   0.057445346445
  48 H      5.905519949554   6.466487625943   0.087945300824
  49 H      3.613906306545  10.071652447194  -0.164262871616
  50 H     -0.127522902202  12.907098085173  -0.156800413981
  51 H     -4.708066490342  13.166994497555   0.100123554824


******** <class 'pyscf.scf.hf.as_scanner.<locals>.SCF_Scanner'> flags ********
method = SCF_Scanner-RHF
initial guess = minao
damping factor = 0
level shift factor = 0
DIIS = <class 'pyscf.scf.diis.CDIIS'>
DIIS start cycle = 1
DIIS space = 8
SCF tol = 1e-09
SCF gradient tol = None
max. SCF cycles = 50
direct_scf = False
chkfile to save SCF result = /tmp/tmp5feegitr
max_memory 24000 MB (current use 1082 MB)
Set gradient conv threshold to 3.16228e-05
init E= -236.6927046802
  HOMO = -0.277413925900443  LUMO = 0.104173047945096
cycle= 1 E= -236.681667267524  delta_E= 0.011  |g|= 0.00316  |ddm|= 0.0161
  HOMO = -0.278909878283556  LUMO = 0.102651320677882
cycle= 2 E= -236.681670022523  delta_E= -2.75e-06  |g|= 0.00174  |ddm|= 0.00772
  HOMO = -0.27877210850849  LUMO = 0.102821398220402
cycle= 3 E= -236.681670728341  delta_E= -7.06e-07  |g|= 0.000279  |ddm|= 0.00178
  HOMO = -0.278731412554545  LUMO = 0.102871703284455
cycle= 4 E= -236.68167077065  delta_E= -4.23e-08  |g|= 9.39e-05  |ddm|= 0.00064
  HOMO = -0.278738162685727  LUMO = 0.102863842033028
cycle= 5 E= -236.681670776523  delta_E= -5.87e-09  |g|= 3.17e-05  |ddm|= 0.000252
  HOMO = -0.278741099730754  LUMO = 0.102860722625215
cycle= 6 E= -236.681670777298  delta_E= -7.74e-10  |g|= 1.3e-05  |ddm|= 8.09e-05
  HOMO = -0.278739943226449  LUMO = 0.102861486486195
Extra cycle  E= -236.681670777444  delta_E= -1.46e-10  |g|= 7.33e-06  |ddm|= 3.14e-05
converged SCF energy = -236.681670777444


******** <class 'pyscf.grad.rhf.as_scanner.<locals>.SCF_GradScanner'> for <class 'pyscf.scf.hf.as_scanner.<locals>.SCF_Scanner'> ********
max_memory 24000 MB (current use 18543 MB)
--------------- SCF_Scanner gradients ---------------
         x                y                z
0 B     0.0018012839    -0.0011910974     0.0003350269
1 B    -0.0005083115    -0.0007260546     0.0004929158
2 B     0.0031959728     0.0005145082    -0.0000463899
3 B     0.0001461670     0.0054136816     0.0011258298
4 B     0.0023218787    -0.0027432527    -0.0056980912
5 B    -0.0005479763    -0.0009605602     0.0012954323
6 B     0.0015607193     0.0004463581     0.0015110784
7 B     0.0000016740     0.0006003124     0.0021490035
8 B     0.0031357237    -0.0013149416     0.0004722003
9 B     0.0038706224    -0.0016447217    -0.0002976562
10 B     0.0009869481     0.0001898358    -0.0007154099
11 C     0.0020305300    -0.0010109768    -0.0004225410
12 B     0.0003061658     0.0000585681     0.0000277036
13 B     0.0012514661    -0.0009303728    -0.0005923037
14 B     0.0023575533    -0.0007027907     0.0006376169
15 B     0.0009424235    -0.0005916423    -0.0008544659
16 B     0.0010968258    -0.0009298138    -0.0022768332
17 B    -0.0006811798     0.0007037362    -0.0028356588
18 N     0.0010301987     0.0009814358    -0.0025560936
19 N     0.0012659622    -0.0026030746    -0.0017677790
20 N    -0.0003502289    -0.0003918539     0.0005453460
21 N     0.0004773057     0.0011796075    -0.0000430432
22 N     0.0014897028     0.0003597637     0.0009975671
23 N     0.0011168346    -0.0018166360     0.0015720149
24 N     0.0004109256    -0.0005254017     0.0010010139
25 N     0.0009032408     0.0003879416    -0.0002507384
26 N     0.0010395884    -0.0019369438     0.0012579702
27 N     0.0002011690     0.0004840169    -0.0011424646
28 N     0.0006259140    -0.0010146893    -0.0010263471
29 N     0.0007080920    -0.0005720099     0.0014159096
30 N     0.0016520900    -0.0015822214     0.0005377179
31 N    -0.0017086550    -0.0011496915     0.0009740958
32 N     0.0002276134     0.0000484629    -0.0014512686
33 N    -0.0010355338    -0.0011911743    -0.0004237408
34 N     0.0001727253    -0.0035334385     0.0040326581
35 N     0.0014907110    -0.0015335071     0.0013825674
36 H     0.0009939262     0.0002038027    -0.0005473457
37 H     0.0005834729    -0.0001238496    -0.0003034615
38 H     0.0003932087    -0.0012222771    -0.0003047388
39 H    -0.0008129021    -0.0017440930     0.0001901193
40 H     0.0002068986    -0.0007084161    -0.0002181982
41 H     0.0008534259    -0.0004591984     0.0004637718
42 H     0.0009134981     0.0000711300     0.0003903876
43 H     0.0010319359     0.0014153400     0.0006390742
44 H    -0.0007830646     0.0000514651     0.0011450640
45 H     0.0012945428    -0.0009588201     0.0013912628
46 H     0.0007744857    -0.0008484452     0.0004889990
47 H     0.0003902718    -0.0000502743     0.0001510832
48 H     0.0004002188     0.0004756612    -0.0001960149
49 H     0.0014643927    -0.0012881316    -0.0012411168
50 H     0.0017630793    -0.0006180433    -0.0008247474
----------------------------------------------
8 Energy: -236.681670777
8 Hessian update information:
8 * Change: RMS: 6.12e-05, max: 0.00187
8 Trust update: Fletcher's parameter: 3.83
8 Linear interpolation:
8 * Energies: -236.68167, -236.68181
8 * Derivatives: 8.43e-05, 9.62e-05
8 * Cubic interpolation was performed: t = 0.926
8 * Interpolated energy: -236.68182
8 Minimization on sphere was performed:
8 * Trust radius: 0.0094
8 * Number of negative eigenvalues: 0
8 * Lowest eigenvalue: 0.00497
8 * lambda: -1.28
8 Quadratic step: RMS: 0.000503, max: 0.00252
8 * Predicted energy change: -0.000125
8 Total step: RMS: 0.00018, max: 0.000918
8 Perfect transformation to cartesians in 2 iterations
8 * RMS(dcart): 5.01e-08, RMS(dq): 3.08e-08
8 Convergence criteria:
8 * Gradient RMS: 0.0014 > 0.0003 => no
8 * Gradient maximum: 0.0057 > 0.00045 => no
8 * Minimization on sphere: Minimization on sphere => no
New geometry (unit Bohr)
   1 B     -9.357938759790  -5.143289033947  -0.084555229088
   2 B      1.935115003644   6.469973476136   0.007605953152
   3 B    -11.928190628271  -1.232642471529   0.087089039983
   4 B     -0.260066398831   2.183094408795  -0.041804566231
   5 B     -2.003568337701  -0.894182333422  -0.120836924876
[...]
  HOMO = -0.278675087777414  LUMO = 0.102863162986086
Extra cycle  E= -236.681813142612  delta_E= 4.55e-13  |g|= 3.52e-07  |ddm|= 8.1e-07
converged SCF energy = -236.681813142612


******** <class 'pyscf.grad.rhf.as_scanner.<locals>.SCF_GradScanner'> for <class 'pyscf.scf.hf.as_scanner.<locals>.SCF_Scanner'> ********
max_memory 24000 MB (current use 18579 MB)
--------------- SCF_Scanner gradients ---------------
         x                y                z
0 B     0.0019898506    -0.0012355228     0.0003315206
1 B    -0.0007291510    -0.0007881688     0.0005072621
2 B     0.0035093038     0.0006360511    -0.0000554924
3 B     0.0000925371     0.0060403354     0.0011621067
4 B     0.0023958890    -0.0028725955    -0.0057555825
5 B    -0.0006179237    -0.0010384640     0.0013240706
6 B     0.0016616516     0.0005308087     0.0015312654
7 B    -0.0000456277     0.0006964579     0.0021798816
8 B     0.0034386839    -0.0014201180     0.0004721858
9 B     0.0042660835    -0.0017947594    -0.0003073214
10 B     0.0009916089     0.0003089036    -0.0007220444
11 C     0.0024524835    -0.0012481880    -0.0004424580
12 B     0.0002145315     0.0001337260     0.0000341331
13 B     0.0012768835    -0.0009978048    -0.0006026500
14 B     0.0025162891    -0.0007064649     0.0006489303
15 B     0.0008668671    -0.0007521402    -0.0008711873
16 B     0.0010157244    -0.0010013370    -0.0023104554
17 B    -0.0009775917     0.0008618867    -0.0028898527
18 N     0.0010998399     0.0012612853    -0.0025719227
19 N     0.0012249681    -0.0028328016    -0.0017891124
20 N    -0.0005131804    -0.0004087641     0.0005551397
21 N     0.0003299798     0.0015463263    -0.0000346763
22 N     0.0015912185     0.0003637116     0.0010077346
23 N     0.0012175421    -0.0019892743     0.0015800123
24 N     0.0004008859    -0.0005709639     0.0010140934
25 N     0.0008910044     0.0004725105    -0.0002737728
26 N     0.0010126605    -0.0021598285     0.0012553020
27 N     0.0001423509     0.0007313576    -0.0011636541
28 N     0.0005237057    -0.0011530491    -0.0010441003
29 N     0.0007445155    -0.0004361698     0.0014305750
30 N     0.0018640471    -0.0017845865     0.0005392739
31 N    -0.0019987542    -0.0010358967     0.0009762816
32 N     0.0001689208     0.0000067015    -0.0014436202
33 N    -0.0013502016    -0.0013621719    -0.0004168639
34 N     0.0002026976    -0.0040249958     0.0040788266
35 N     0.0016494578    -0.0016848774     0.0014315579
36 H     0.0009581152     0.0002836453    -0.0005542165
37 H     0.0005072916    -0.0000621006    -0.0003054506
38 H     0.0003401316    -0.0012611195    -0.0003072624
39 H    -0.0010182053    -0.0019140085     0.0001941648
40 H     0.0001300035    -0.0007543420    -0.0002190883
41 H     0.0008485624    -0.0004540425     0.0004709144
42 H     0.0009362349     0.0002060386     0.0003949831
43 H     0.0010478998     0.0018952346     0.0006393252
44 H    -0.0009878507     0.0001451341     0.0011574459
45 H     0.0013521524    -0.0010086658     0.0014143506
46 H     0.0007366482    -0.0008955564     0.0004918420
47 H     0.0003532155    -0.0000353019     0.0001508685
48 H     0.0003856841     0.0005395505    -0.0001979423
49 H     0.0014987199    -0.0013872941    -0.0012534422
50 H     0.0018254636    -0.0006351529    -0.0008399796
----------------------------------------------
31 Energy: -236.681813143
31 Hessian update information:
31 * Change: RMS: 0.000822, max: 0.0217
31 Trust update: Fletcher's parameter: -0.699
31 Linear interpolation:
31 * Energies: -236.68181, -236.68181
31 * Derivatives: 7.12e-08, 7.12e-08
31 * Cubic interpolation was performed: t = 0.935
31 * Interpolated energy: -236.68181
31 Minimization on sphere was performed:
31 * Trust radius: 1.1e-06
31 * Number of negative eigenvalues: 0
31 * Lowest eigenvalue: 0.00469
31 * lambda: -1.3e+04
31 Quadratic step: RMS: 6.14e-08, max: 3.27e-07
31 * Predicted energy change: -1.71e-08
31 Total step: RMS: 1.78e-07, max: 9.45e-07
31 Perfect transformation to cartesians in 1 iterations
31 * RMS(dcart): 3.61e-07, RMS(dq): 1.78e-07
31 Convergence criteria:
31 * Gradient RMS: 0.0015 > 0.0003 => no
31 * Gradient maximum: 0.00604 > 0.00045 => no
31 * Minimization on sphere: Minimization on sphere => no
New geometry (unit Bohr)
   1 B     -9.355250555529  -5.143857260249  -0.086089283440
   2 B      1.933695371134   6.470156342597   0.007054076680
   3 B    -11.924600830782  -1.233617169733   0.087327314728
   4 B     -0.262897872273   2.186425793884  -0.042085537444
   5 B     -2.003538499401  -0.893994648838  -0.121925746509
   6 B     -4.942051798923  10.930550600168   0.142877697725
   7 B     -4.623489701925  -4.933284120873  -0.122687763095
   8 B     -0.265900109867  10.667562286709  -0.044269662140
   9 B     -7.132751046516  -0.905983182824  -0.015310293231
  10 B     -2.809017976456   6.626141878877   0.079491491665
  11 B    -10.111274272447   3.081323806434   0.112370569656
  12 C     -5.501695022279   3.165526423741   0.084529563297
  13 B     -7.753631823236   7.190999505350   0.180010457824
  14 B      4.669265064860   2.668827128341   0.001332167940
  15 B      0.030619156078  -5.413035695808  -0.132075068147
  16 B      2.498251953807  -1.455121839123  -0.100765742078
  17 B      4.777246810740  -5.554929698869  -0.142811125464
  18 B      7.182872417849  -1.367963372393  -0.067758788460
  19 N     -6.965668107337  -6.309788903429  -0.162228096277
  20 N      1.948282967858   9.184751945831  -0.080291470887
  21 N     -9.451683749108  -2.408256699497   0.002188321374
  22 N     -0.499036078942   5.044121947917   0.018230918231
  23 N    -12.253171873162   1.458210806278   0.134814261503
  24 N     -7.430607969316   9.858743417327   0.213942668222
  25 N     -4.603166054349  -2.113325313841  -0.089353668302
  26 N     -2.678760738343   9.383531977547   0.077280980869
  27 N      4.395399351741   5.330586368816   0.056211847714
  28 N     -2.412953717863  -6.501402615340  -0.139890987239
  29 N     -7.654204877989   1.845077727851   0.048905214622
  30 N     -5.448684547145   5.689885787711   0.133602300116
  31 N    -10.088795179504   5.798903144548   0.173926531820
  32 N      2.360439292859   1.247651301685  -0.044184558310
  33 N      2.374285792738  -6.794367478731  -0.157647504854
  34 N      7.043570573745   1.332421445782  -0.012270849817
  35 N      0.104050881633  -2.707460651493  -0.106196295272
  36 N      4.863839614993  -2.819008903342  -0.119820676037
  37 H     -8.897644282269  11.046711475442   0.221328779634
  38 H    -11.727338812244   6.740579409718   0.203343012976
  39 H    -14.019246277759   2.122236789121   0.176467652982
  40 H    -13.757262406870  -2.552221433207   0.119488038054
  41 H    -11.239428143287  -6.377393054208  -0.099026650094
  42 H     -6.877881326857  -8.195923069536  -0.194864614798
  43 H     -2.636008165860  -8.375044177692  -0.144253856733
  44 H      2.366240678766  -8.679796654419  -0.132833351611
  45 H      6.671487338410  -6.770137554063  -0.096113274148
  46 H      9.188886270604  -2.408986629313  -0.008690897683
  47 H      8.672378706507   2.287740199113   0.058302730436
  48 H      5.903986910345   6.465378383280   0.087765869172
  49 H      3.613554029520  10.071796001687  -0.166407667066
  50 H     -0.125943338348  12.907144301327  -0.159190930645
  51 H     -4.707282158796  13.166871005249   0.099683977070


******** <class 'pyscf.scf.hf.as_scanner.<locals>.SCF_Scanner'> flags ********
method = SCF_Scanner-RHF
initial guess = minao
damping factor = 0
level shift factor = 0
DIIS = <class 'pyscf.scf.diis.CDIIS'>
DIIS start cycle = 1
DIIS space = 8
SCF tol = 1e-09
SCF gradient tol = None
max. SCF cycles = 50
direct_scf = False
chkfile to save SCF result = /tmp/tmp5feegitr
max_memory 24000 MB (current use 1127 MB)
Set gradient conv threshold to 3.16228e-05
init E= -236.681816635104
  HOMO = -0.27867462304599  LUMO = 0.102863593220097
cycle= 1 E= -236.681813227857  delta_E= 3.41e-06  |g|= 1.03e-06  |ddm|= 4.31e-06
  HOMO = -0.278675110932227  LUMO = 0.102863103007055
cycle= 2 E= -236.681813227855  delta_E= 2.27e-12  |g|= 5.95e-07  |ddm|= 2.37e-06
  HOMO = -0.278675034025191  LUMO = 0.10286318953062
Extra cycle  E= -236.681813227857  delta_E= -2.73e-12  |g|= 3.69e-07  |ddm|= 9.01e-07
converged SCF energy = -236.681813227857


******** <class 'pyscf.grad.rhf.as_scanner.<locals>.SCF_GradScanner'> for <class 'pyscf.scf.hf.as_scanner.<locals>.SCF_Scanner'> ********
max_memory 24000 MB (current use 18586 MB)
--------------- SCF_Scanner gradients ---------------
         x                y                z
0 B     0.0019899472    -0.0012355405     0.0003315185
1 B    -0.0007291694    -0.0007881551     0.0005072685
2 B     0.0035094694     0.0006361260    -0.0000554968
3 B     0.0000925776     0.0060405195     0.0011621204
4 B     0.0023959555    -0.0028726091    -0.0057556073
5 B    -0.0006179691    -0.0010385009     0.0013240827
6 B     0.0016616843     0.0005307759     0.0015312727
7 B    -0.0000456389     0.0006965185     0.0021798924
8 B     0.0034387518    -0.0014201161     0.0004721873
9 B     0.0042661828    -0.0017947785    -0.0003073233
10 B     0.0009916082     0.0003089542    -0.0007220470
11 C     0.0024527340    -0.0012483554    -0.0004424731
12 B     0.0002144765     0.0001337686     0.0000341372
13 B     0.0012768663    -0.0009978519    -0.0006026549
14 B     0.0025163464    -0.0007064898     0.0006489350
15 B     0.0008668346    -0.0007521572    -0.0008711936
16 B     0.0010157092    -0.0010013727    -0.0023104680
17 B    -0.0009777463     0.0008619769    -0.0028898747
18 N     0.0010998936     0.0012614502    -0.0025719283
19 N     0.0012249289    -0.0028329302    -0.0017891213
20 N    -0.0005132528    -0.0004087839     0.0005551439
21 N     0.0003298935     0.0015465372    -0.0000346706
22 N     0.0015912710     0.0003637032     0.0010077390
23 N     0.0012176050    -0.0019893671     0.0015800163
24 N     0.0004008955    -0.0005709960     0.0010140990
25 N     0.0008910070     0.0004725331    -0.0002737808
26 N     0.0010126372    -0.0021599469     0.0012553002
27 N     0.0001423326     0.0007315079    -0.0011636626
28 N     0.0005236555    -0.0011531479    -0.0010441064
29 N     0.0007445639    -0.0004360570     0.0014305863
30 N     0.0018641751    -0.0017846973     0.0005392739
31 N    -0.0019989189    -0.0010358116     0.0009762837
32 N     0.0001688868     0.0000066636    -0.0014436160
33 N    -0.0013503662    -0.0013622723    -0.0004168622
34 N     0.0002027082    -0.0040252707     0.0040788463
35 N     0.0016495385    -0.0016849692     0.0014315771
36 H     0.0009580954     0.0002836845    -0.0005542192
37 H     0.0005072488    -0.0000620676    -0.0003054508
38 H     0.0003401126    -0.0012611400    -0.0003072630
39 H    -0.0010183061    -0.0019140948     0.0001941667
40 H     0.0001299680    -0.0007543650    -0.0002190889
41 H     0.0008485616    -0.0004540367     0.0004709171
42 H     0.0009362468     0.0002061170     0.0003949850
43 H     0.0010479078     0.0018954989     0.0006393254
44 H    -0.0009879620     0.0001451841     0.0011574512
45 H     0.0013521762    -0.0010086897     0.0014143608
46 H     0.0007366222    -0.0008955844     0.0004918433
47 H     0.0003531848    -0.0000353036     0.0001508680
48 H     0.0003856735     0.0005395745    -0.0001979442
49 H     0.0014987342    -0.0013873476    -0.0012534476
50 H     0.0018254935    -0.0006351654    -0.0008399866
----------------------------------------------
32 Energy: -236.681813228
32 Hessian update information:
32 * Change: RMS: 0.00296, max: 0.0502
32 Trust update: Fletcher's parameter: 4.99
32 Linear interpolation:
32 * Energies: -236.68181, -236.68181
32 * Derivatives: 2.17e-08, 2.17e-08
32 * Cubic interpolation was performed: t = 0.935
32 * Interpolated energy: -236.68181
32 Minimization on sphere was performed:
32 * Trust radius: 2.3e-06
32 * Number of negative eigenvalues: 0
32 * Lowest eigenvalue: 0.00225
32 * lambda: -6.52e+03
32 Quadratic step: RMS: 1.23e-07, max: 6.53e-07
32 * Predicted energy change: -3.42e-08
32 Total step: RMS: 4.98e-08, max: 2.65e-07
32 Perfect transformation to cartesians in 1 iterations
32 * RMS(dcart): 1.01e-07, RMS(dq): 4.98e-08
32 Convergence criteria:
32 * Gradient RMS: 0.0015 > 0.0003 => no
32 * Gradient maximum: 0.00604 > 0.00045 => no
32 * Minimization on sphere: Minimization on sphere => no
New geometry (unit Bohr)
   1 B     -9.355250831478  -5.143857207108  -0.086089163894
   2 B      1.933695514482   6.470156325812   0.007054120410
   3 B    -11.924601183100  -1.233617065761   0.087327297204
   4 B     -0.262897594569   2.186425474441  -0.042085516296
   5 B     -2.003538484411  -0.893994690677  -0.121925662839
   6 B     -4.942051833661  10.930550611529   0.142877644339
   7 B     -4.623489861573  -4.933284293171  -0.122687678633
   8 B     -0.265900159264  10.667562210379  -0.044269537488
   9 B     -7.132751349809  -0.905983105577  -0.015310251083
  10 B     -2.809018139567   6.626141743709   0.079491460863
  11 B    -10.111274619770   3.081323910254   0.112370506285
  12 C     -5.501695431228   3.165526495555   0.084529544264
  13 B     -7.753632006688   7.190999591049   0.180010326358
  14 B      4.669265481742   2.668827230316   0.001332162798
  15 B      0.030619233346  -5.413035810638  -0.132075076570
  16 B      2.498252280975  -1.455121851063  -0.100765750160
  17 B      4.777247154502  -5.554929790653  -0.142811194818
  18 B      7.182872918682  -1.367963337459  -0.067758845833
  19 N     -6.965668379279  -6.309789034438  -0.162227940865
  20 N      1.948282989292   9.184751982343  -0.080291314326
  21 N     -9.451684018377  -2.408256624355   0.002188361916
  22 N     -0.499035989125   5.044121712208   0.018230921292
  23 N    -12.253172232679   1.458210925809   0.134814185951
  24 N     -7.430608066527   9.858743512035   0.213942527767
  25 N     -4.603166196738  -2.113325344401  -0.089353594731
  26 N     -2.678760807181   9.383531859629   0.077280982351
  27 N      4.395399603065   5.330586511611   0.056211860747
  28 N     -2.412953729840  -6.501402819598  -0.139890928564
  29 N     -7.654205236906   1.845077827818   0.048905212437
  30 N     -5.448684789936   5.689885798180   0.133602212967
  31 N    -10.088795461957   5.798903308190   0.173926408451
  32 N      2.360439730474   1.247651241596  -0.044184554694
  33 N      2.374286023755  -6.794367685792  -0.157647549800
  34 N      7.043571133916   1.332421593663  -0.012270892450
  35 N      0.104051032758  -2.707460619193  -0.106196304509
  36 N      4.863839973714  -2.819008900003  -0.119820723738
  37 H     -8.897644365496  11.046711548316   0.221328656968
  38 H    -11.727339047025   6.740579595630   0.203342873075
  39 H    -14.019246590060   2.122237004927   0.176467547850
  40 H    -13.757262646300  -2.552221237197   0.119488013595
  41 H    -11.239428408820  -6.377392934471  -0.099026504337
  42 H     -6.877881691708  -8.195923207262  -0.194864447739
  43 H     -2.636008150796  -8.375044429376  -0.144253798257
  44 H      2.366240903409  -8.679797010320  -0.132833444271
  45 H      6.671487825008  -6.770137639963  -0.096113457140
  46 H      9.188886725704  -2.408986590694  -0.008691084215
  47 H      8.672379259388   2.287740395273   0.058302633287
  48 H      5.903987137060   6.465378569247   0.087765894559
  49 H      3.613554065778  10.071796006615  -0.166407421028
  50 H     -0.125943560236  12.907144292002  -0.159190658663
  51 H     -4.707282253743  13.166871026546   0.099684025733


******** <class 'pyscf.scf.hf.as_scanner.<locals>.SCF_Scanner'> flags ********
method = SCF_Scanner-RHF
initial guess = minao
damping factor = 0
level shift factor = 0
DIIS = <class 'pyscf.scf.diis.CDIIS'>
DIIS start cycle = 1
DIIS space = 8
SCF tol = 1e-09
SCF gradient tol = None
max. SCF cycles = 50
direct_scf = False
chkfile to save SCF result = /tmp/tmp5feegitr
max_memory 24000 MB (current use 1127 MB)
Set gradient conv threshold to 3.16228e-05
init E= -236.681812249626
  HOMO = -0.278675182000554  LUMO = 0.102863049775223
cycle= 1 E= -236.681813203978  delta_E= -9.54e-07  |g|= 4.4e-07  |ddm|= 1.38e-06
  HOMO = -0.278675036212274  LUMO = 0.102863197238777
cycle= 2 E= -236.68181320398  delta_E= -1.36e-12  |g|= 2.76e-07  |ddm|= 8.57e-07
  HOMO = -0.278675062949023  LUMO = 0.102863167309816
Extra cycle  E= -236.681813203978  delta_E= 2.05e-12  |g|= 1.76e-07  |ddm|= 4.05e-07
converged SCF energy = -236.681813203978


******** <class 'pyscf.grad.rhf.as_scanner.<locals>.SCF_GradScanner'> for <class 'pyscf.scf.hf.as_scanner.<locals>.SCF_Scanner'> ********
max_memory 24000 MB (current use 18586 MB)
--------------- SCF_Scanner gradients ---------------
         x                y                z
0 B     0.0019899252    -0.0012355353     0.0003315192
1 B    -0.0007292115    -0.0007881807     0.0005072664
2 B     0.0035094214     0.0006360979    -0.0000554956
3 B     0.0000925357     0.0060405288     0.0011621182
4 B     0.0023959169    -0.0028726270    -0.0057555989
5 B    -0.0006179477    -0.0010384931     0.0013240792
6 B     0.0016616860     0.0005308184     0.0015312710
7 B    -0.0000456402     0.0006964933     0.0021798902
8 B     0.0034387758    -0.0014201425     0.0004721858
9 B     0.0042662032    -0.0017948013    -0.0003073243
10 B     0.0009916099     0.0003089464    -0.0007220462
11 C     0.0024526693    -0.0012483006    -0.0004424669
12 B     0.0002144951     0.0001337549     0.0000341354
13 B     0.0012768816    -0.0009978336    -0.0006026534
14 B     0.0025163374    -0.0007064709     0.0006489337
15 B     0.0008668352    -0.0007521912    -0.0008711921
16 B     0.0010156933    -0.0010013620    -0.0023104648
17 B    -0.0009777078     0.0008619471    -0.0028898689
18 N     0.0010998723     0.0012614008    -0.0025719260
19 N     0.0012249436    -0.0028328891    -0.0017891181
20 N    -0.0005132379    -0.0004087758     0.0005551427
21 N     0.0003299168     0.0015464763    -0.0000346725
22 N     0.0015912572     0.0003637059     0.0010077374
23 N     0.0012175857    -0.0019893416     0.0015800144
24 N     0.0004008850    -0.0005709836     0.0010140975
25 N     0.0008910019     0.0004725340    -0.0002737796
26 N     0.0010126458    -0.0021599172     0.0012553005
27 N     0.0001423345     0.0007314630    -0.0011636602
28 N     0.0005236585    -0.0011531162    -0.0010441055
29 N     0.0007445418    -0.0004360925     0.0014305810
30 N     0.0018641381    -0.0017846675     0.0005392737
31 N    -0.0019988597    -0.0010358362     0.0009762824
32 N     0.0001688995     0.0000066693    -0.0014436165
33 N    -0.0013503222    -0.0013622417    -0.0004168623
34 N     0.0002027156    -0.0040251875     0.0040788397
35 N     0.0016495201    -0.0016849381     0.0014315727
36 H     0.0009580986     0.0002836753    -0.0005542184
37 H     0.0005072593    -0.0000620760    -0.0003054509
38 H     0.0003401131    -0.0012611322    -0.0003072630
39 H    -0.0010182791    -0.0019140707     0.0001941662
40 H     0.0001299762    -0.0007543592    -0.0002190886
41 H     0.0008485609    -0.0004540397     0.0004709165
42 H     0.0009362441     0.0002060958     0.0003949845
43 H     0.0010479057     0.0018954347     0.0006393248
44 H    -0.0009879273     0.0001451695     0.0011574493
45 H     0.0013521716    -0.0010086834     0.0014143575
46 H     0.0007366306    -0.0008955755     0.0004918427
47 H     0.0003531992    -0.0000353002     0.0001508683
48 H     0.0003856795     0.0005395705    -0.0001979431
49 H     0.0014987305    -0.0013873311    -0.0012534456
50 H     0.0018254844    -0.0006351602    -0.0008399843
----------------------------------------------
33 Energy: -236.681813204
33 Hessian update information:
33 * Change: RMS: 0.00186, max: 0.0313
33 Trust update: Fletcher's parameter: -0.699
33 Linear interpolation:
33 * Energies: -236.68181, -236.68181
33 * Derivatives: 3.56e-08, 3.56e-08
33 * Cubic interpolation was performed: t = 0.935
33 * Interpolated energy: -236.68181
