#INFO: **** input file is /tigress/xingz/pydmfet/examples/research/Cu2/PATFIA.py ****
from pydmfet import locints, sdmfet, oep, tools, dfet_ao, proj_ao
from pydmfet.dfet_ao import dfet
from pydmfet.qcwrap.pyscf_rks_ao import rks_ao
from pyscf import gto, scf,dft, ao2mo,cc
import numpy as np
from pyscf.tools import molden, cubegen
import copy,time
from pydmfet.tools.sym import h_lattice_sym_tab
import time

t0 = (time.clock(), time.time())

bas1 = '6-31G*'
bas2 = 'lanl2dz'
ecp = 'lanl2dz'
temp = 0.005


mol = gto.Mole()
mol.atom = open('PATFIA.xyz').read()
mol.basis = {'N':bas1,'O':bas1, 'C':bas1, 'H':bas1, 'Cu':bas2}
mol.ecp = ecp
mol.charge = 2
mol.build(max_memory = 16000, verbose=4)

mf = rks_ao(mol,smear_sigma = temp)
mf.xc = 'pbe,pbe'
mf.max_cycle = 100
mf.scf(dm0=None)

#INFO: ******************** input file end ********************


System: uname_result(system='Linux', node='tigercpu.princeton.edu', release='3.10.0-957.27.2.el7.x86_64', version='#1 SMP Tue Jul 30 11:12:20 EDT 2019', machine='x86_64', processor='x86_64')  Threads 40
Python 3.7.0 (default, Jun 28 2018, 13:15:42) 
[GCC 7.2.0]
numpy 1.16.4  scipy 1.4.0.dev0+0f78e0f
Date: Sun Sep  8 14:42:44 2019
PySCF version 1.5
PySCF path  /home/xingz/.local/lib/python3.7/site-packages/pyscf

[CONFIG] conf_file None
[INPUT] verbose = 4
[INPUT] num. atoms = 47
[INPUT] num. electrons = 176
[INPUT] charge = 2
[INPUT] spin (= nelec alpha-beta = 2S) = 0
[INPUT] symmetry False subgroup None
[INPUT] Mole.unit = angstrom
[INPUT]  1 Cu     0.000000000000   0.000000000000   0.000000000000 AA    0.000000000000   0.000000000000   0.000000000000 Bohr
[INPUT]  2 Cu     0.925000000000   1.720000000000  -2.581000000000 AA    1.747996665223   3.250328934252  -4.877383127502 Bohr
[INPUT]  3 H     -1.006000000000  -0.187000000000  -3.472000000000 AA   -1.901064481312  -0.353378785294  -6.561129104490 Bohr
[INPUT]  4 H      2.069000000000   0.732000000000   2.139000000000 AA    3.909843351725   1.383279523182   4.042124180445 Bohr
[INPUT]  5 O     -0.181000000000   0.318000000000  -1.874000000000 AA   -0.342040428546   0.600932907612  -3.541346757435 Bohr
[INPUT]  6 O      2.524000000000   0.972000000000  -1.839000000000 AA    4.769668738402   1.836813793077  -3.475206343075 Bohr
[INPUT]  7 O      1.892000000000  -0.349000000000  -0.158000000000 AA    3.575361827677  -0.659514417473  -0.298576727681 Bohr
[INPUT]  8 H      1.253000000000   0.938000000000   3.462000000000 AA    2.367826834080   1.772563104842   6.542231843244 Bohr
[INPUT]  9 C      1.203000000000   0.934000000000   2.503000000000 AA    2.273340527852   1.765004200344   4.729984489786 Bohr
[INPUT] 10 H      0.915000000000   1.792000000000   2.191000000000 AA    1.729099403977   3.386389215221   4.140389938922 Bohr
[INPUT] 11 H      0.122000000000  -2.063000000000   2.097000000000 AA    0.230546587197  -3.898504994978   3.962755683213 Bohr
[INPUT] 12 N      0.218000000000  -0.118000000000   2.058000000000 AA    0.411960295155  -0.222987682699   3.889056364355 Bohr
[INPUT] 13 N     -1.942000000000   0.181000000000   0.393000000000 AA   -3.669848133905   0.342040428546   0.742662366954 Bohr
[INPUT] 14 H     -2.227000000000   0.999000000000   0.145000000000 AA   -4.208420079406   1.887836398440   0.274010288062 Bohr
[INPUT] 15 H     -2.405000000000  -0.431000000000  -0.076000000000 AA   -4.544791329579  -0.814471959688  -0.143619185467 Bohr
[INPUT] 16 N      2.064000000000   3.355000000000  -3.079000000000 AA    3.900394721102   6.340031147916  -5.818466737536 Bohr
[INPUT] 17 N     -0.499000000000   2.585000000000  -3.664000000000 AA   -0.942973336158   4.884942032001  -6.923956520406 Bohr
[INPUT] 18 H     -0.800000000000   2.003000000000  -4.281000000000 AA   -1.511780899652   3.785121427504  -8.089917539263 Bohr
[INPUT] 19 H     -1.190000000000   2.803000000000  -3.128000000000 AA   -2.248774088232   5.296902327156  -5.911063317640 Bohr
[INPUT] 20 H      3.773315000000  -0.253545000000  -0.829399000000 AA    7.130531931713  -0.479130610253  -1.567336957988 Bohr
[INPUT] 21 H      1.627000000000   4.936000000000  -4.249000000000 AA    3.074584404667   9.327688150853  -8.029446303277 Bohr
[INPUT] 22 C      1.138000000000   4.370000000000  -3.637000000000 AA    2.150508329755   8.258103164349  -6.872933915043 Bohr
[INPUT] 23 H     -1.504000000000  -0.959000000000  -2.201000000000 AA   -2.842148091346  -1.812247353458  -4.159287200168 Bohr
[INPUT] 24 H      2.790000000000   3.400000000000  -1.215000000000 AA    5.272335887537   6.425068823521  -2.296017241347 Bohr
[INPUT] 25 C      3.051000000000   2.978000000000  -4.104000000000 AA    5.765554406048   5.627604398955  -7.755436015215 Bohr
[INPUT] 26 H     -0.712000000000   4.452000000000  -4.377000000000 AA   -1.345485000690   8.413060706564  -8.271331247221 Bohr
[INPUT] 27 H      0.812000000000   4.925000000000  -2.911000000000 AA    1.534457613147   9.306901163483  -5.500992748609 Bohr
[INPUT] 28 C      2.731000000000   0.106000000000  -0.917000000000 AA    5.160842046187   0.200310969204  -1.732878856226 Bohr
[INPUT] 29 H     -1.948000000000   0.525000000000  -2.439000000000 AA   -3.681186490653   0.992106215397  -4.609042017814 Bohr
[INPUT] 30 C     -0.001000000000   3.794000000000  -4.333000000000 AA   -0.001889726125   7.169620916600  -8.188183297740 Bohr
[INPUT] 31 C     -1.230000000000  -0.106000000000  -2.540000000000 AA   -2.324363133215  -0.200310969204  -4.799904356395 Bohr
[INPUT] 32 H      2.292000000000   4.800000000000  -1.712000000000 AA    4.331252277503   9.070685397912  -3.235211125255 Bohr
[INPUT] 33 H      3.655000000000   4.224000000000  -2.228000000000 AA    6.906948985285   7.982203150163  -4.210309805531 Bohr
[INPUT] 34 C      2.761000000000   4.003000000000  -1.962000000000 AA    5.217533829924   7.564573676634  -3.707642656397 Bohr
[INPUT] 35 H      3.308000000000   2.060000000000  -3.979000000000 AA    6.251214020061   3.892835816604  -7.519220249644 Bohr
[INPUT] 36 H      2.663000000000   3.083000000000  -4.977000000000 AA    5.032340669717   5.826025642034  -9.405166921960 Bohr
[INPUT] 37 H      3.825000000000   3.539000000000  -4.028000000000 AA    7.228202426461   6.687740754836  -7.611816829748 Bohr
[INPUT] 38 H      0.259000000000   3.573000000000  -5.242000000000 AA    0.489439066262   6.751991443071  -9.905944344970 Bohr
[INPUT] 39 C     -1.030000000000   0.395000000000   2.631000000000 AA   -1.946417908302   0.746441819203   4.971869433731 Bohr
[INPUT] 40 H     -1.136000000000   0.061000000000   3.533000000000 AA   -2.146728877506   0.115273293598   6.676402398088 Bohr
[INPUT] 41 H     -0.989000000000   1.366000000000   2.672000000000 AA   -1.868939137195   2.581365886156   5.049348204838 Bohr
[INPUT] 42 C     -2.185000000000  -0.009000000000   1.814000000000 AA   -4.129051582175  -0.017007535121   3.427963189961 Bohr
[INPUT] 43 H     -2.960000000000   0.509000000000   2.080000000000 AA   -5.593589328713   0.961870597404   3.930630339095 Bohr
[INPUT] 44 H     -2.380000000000  -0.944000000000   1.984000000000 AA   -4.497548176465  -1.783901461589   3.749216631137 Bohr
[INPUT] 45 C      0.639000000000  -1.379000000000   2.522000000000 AA    1.207534993597  -2.605932325775   4.765889286153 Bohr
[INPUT] 46 H      0.514000000000  -1.423000000000   3.474000000000 AA    0.971319228026  -2.689080275256   6.564908556739 Bohr
[INPUT] 47 H      1.568000000000  -1.499000000000   2.316000000000 AA    2.963090563318  -2.832699460723   4.376605704493 Bohr

nuclear repulsion = 2335.75371906719
number of shells = 172
number of NR pGTOs = 661
number of NR cGTOs = 338
basis = {'N': '6-31G*', 'O': '6-31G*', 'C': '6-31G*', 'H': '6-31G*', 'Cu': 'lanl2dz'}
ecp = lanl2dz
CPU time:         4.53
rks_ao.ne_frozen =  0


******** <class 'pydmfet.qcwrap.pyscf_rks_ao.rks_ao'> flags ********
method = rks_ao-RKS-RHF
initial guess = minao
damping factor = 0
level shift factor = 0
DIIS = <class 'pyscf.scf.diis.CDIIS'>
DIIS start cycle = 1
DIIS space = 8
SCF tol = 1e-09
SCF gradient tol = None
max. SCF cycles = 100
direct_scf = False
chkfile to save SCF result = /tigress/xingz/pydmfet/examples/research/Cu2/tmp_c3lra6q
max_memory 16000 MB (current use 66 MB)
XC functionals = pbe,pbe
small_rho_cutoff = 1e-07
radial grids: 
    Treutler-Ahlrichs (JCP 102, 346 (M4)) radial grids
    
becke partition: Becke, JCP, 88, 2547 (1988)
pruning grids: <function nwchem_prune at 0x2ba54c8fe400>
grids dens level: 3
symmetrized grids: False
atomic radii adjust function: <function treutler_atomic_radii_adjust at 0x2ba54c8fe378>
Set gradient conv threshold to 3.16228e-05
tot grids = 559510
init E= -1233.04873418759
HOMO:  0.0005615439166888179 LUMO:  0.011076291389233195
Fermi energy:       0.0053110364
[2.0000e+00 2.0000e+00 2.0000e+00 2.0000e+00 2.0000e+00 2.0000e+00
 2.0000e+00 2.0000e+00 2.0000e+00 2.0000e+00 2.0000e+00 2.0000e+00
 2.0000e+00 2.0000e+00 2.0000e+00 2.0000e+00 2.0000e+00 2.0000e+00
 2.0000e+00 2.0000e+00 2.0000e+00 2.0000e+00 2.0000e+00 2.0000e+00
 2.0000e+00 2.0000e+00 2.0000e+00 2.0000e+00 2.0000e+00 2.0000e+00
 2.0000e+00 2.0000e+00 2.0000e+00 2.0000e+00 2.0000e+00 2.0000e+00
 2.0000e+00 2.0000e+00 2.0000e+00 2.0000e+00 2.0000e+00 2.0000e+00
 2.0000e+00 2.0000e+00 2.0000e+00 2.0000e+00 2.0000e+00 2.0000e+00
 2.0000e+00 2.0000e+00 2.0000e+00 2.0000e+00 2.0000e+00 2.0000e+00
 2.0000e+00 2.0000e+00 2.0000e+00 2.0000e+00 2.0000e+00 2.0000e+00
 2.0000e+00 2.0000e+00 2.0000e+00 2.0000e+00 2.0000e+00 2.0000e+00
 2.0000e+00 2.0000e+00 2.0000e+00 2.0000e+00 2.0000e+00 2.0000e+00
 2.0000e+00 2.0000e+00 2.0000e+00 2.0000e+00 2.0000e+00 2.0000e+00
 2.0000e+00 2.0000e+00 1.9999e+00 1.9998e+00 1.9979e+00 1.9906e+00
 1.9340e+00 1.9015e+00 1.8980e+00 1.4422e+00 4.7986e-01 1.9686e-01
 1.4094e-01 1.7869e-02 4.2348e-04]
entropy correction =  -0.02355451696308998
cycle= 1 E= -1152.08000763372  delta_E=   81  |g|= 11.9  |ddm|= 23.3
HOMO:  -1.0285035350881824 LUMO:  -0.9925563567234406
Fermi energy:      -1.0106677568
[2.     2.     2.     2.     2.     2.     2.     2.     2.     2.
 2.     2.     2.     2.     2.     2.     2.     2.     2.     2.
 2.     2.     2.     2.     2.     2.     2.     2.     2.     2.
 2.     2.     2.     2.     2.     2.     2.     2.     2.     2.
 2.     2.     2.     2.     2.     2.     2.     2.     2.     2.
 2.     2.     2.     2.     2.     2.     2.     2.     2.     2.
 2.     2.     2.     2.     2.     2.     2.     2.     2.     2.
 2.     2.     2.     2.     2.     2.     2.     2.     2.     2.
 2.     2.     2.     2.     2.     2.     2.     1.9451 0.0521 0.0028]
entropy correction =  -0.0025752005115222665
cycle= 2 E= -978.873295104129  delta_E=  173  |g|= 25.6  |ddm|= 70.5
HOMO:  -0.8600892818539814 LUMO:  -0.8403948798276987
Fermi energy:      -0.8498010013
[2.     2.     2.     2.     2.     2.     2.     2.     2.     2.
 2.     2.     2.     2.     2.     2.     2.     2.     2.     2.
 2.     2.     2.     2.     2.     2.     2.     2.     2.     2.
 2.     2.     2.     2.     2.     2.     2.     2.     2.     2.
 2.     2.     2.     2.     2.     2.     2.     2.     2.     2.
 2.     2.     2.     2.     2.     2.     2.     2.     2.     2.
 2.     2.     2.     2.     2.     2.     2.     2.     2.     2.
 2.     2.     2.     2.     2.     2.     2.     2.     2.     2.
 2.     2.     2.     2.     2.     2.     1.9621 1.7734 0.2645]
entropy correction =  -0.008381447805605348
cycle= 3 E= -1158.4681908097  delta_E= -180  |g|= 12.3  |ddm|= 55.3
HOMO:  -0.5850218309168935 LUMO:  -0.581567402457126
Fermi energy:      -0.5830433934
[2.0000e+00 2.0000e+00 2.0000e+00 2.0000e+00 2.0000e+00 2.0000e+00
 2.0000e+00 2.0000e+00 2.0000e+00 2.0000e+00 2.0000e+00 2.0000e+00
 2.0000e+00 2.0000e+00 2.0000e+00 2.0000e+00 2.0000e+00 2.0000e+00
 2.0000e+00 2.0000e+00 2.0000e+00 2.0000e+00 2.0000e+00 2.0000e+00
 2.0000e+00 2.0000e+00 2.0000e+00 2.0000e+00 2.0000e+00 2.0000e+00
 2.0000e+00 2.0000e+00 2.0000e+00 2.0000e+00 2.0000e+00 2.0000e+00
 2.0000e+00 2.0000e+00 2.0000e+00 2.0000e+00 2.0000e+00 2.0000e+00
 2.0000e+00 2.0000e+00 2.0000e+00 2.0000e+00 2.0000e+00 2.0000e+00
 2.0000e+00 2.0000e+00 2.0000e+00 2.0000e+00 2.0000e+00 2.0000e+00
 2.0000e+00 2.0000e+00 2.0000e+00 2.0000e+00 2.0000e+00 2.0000e+00
 2.0000e+00 2.0000e+00 2.0000e+00 2.0000e+00 2.0000e+00 2.0000e+00
 2.0000e+00 2.0000e+00 2.0000e+00 2.0000e+00 2.0000e+00 2.0000e+00
 2.0000e+00 2.0000e+00 2.0000e+00 2.0000e+00 2.0000e+00 2.0000e+00
 2.0000e+00 2.0000e+00 2.0000e+00 1.9998e+00 1.9996e+00 1.9978e+00
 1.9921e+00 1.9429e+00 1.5342e+00 1.1953e+00 8.5346e-01 3.8763e-01
 6.5442e-02 2.3671e-02 6.0418e-03 1.2587e-03 5.8865e-04]
entropy correction =  -0.02794870748315172
cycle= 4 E= -1189.96086938226  delta_E= -31.5  |g|= 10.9  |ddm|= 24.2
HOMO:  -0.5103731533709689 LUMO:  -0.5068939581199905
Fermi energy:      -0.5109231635
[2.     2.     2.     2.     2.     2.     2.     2.     2.     2.
 2.     2.     2.     2.     2.     2.     2.     2.     2.     2.
 2.     2.     2.     2.     2.     2.     2.     2.     2.     2.
 2.     2.     2.     2.     2.     2.     2.     2.     2.     2.
 2.     2.     2.     2.     2.     2.     2.     2.     2.     2.
 2.     2.     2.     2.     2.     2.     2.     2.     2.     2.
 2.     2.     2.     2.     2.     2.     2.     2.     2.     2.
 2.     2.     2.     2.     2.     2.     2.     2.     2.     2.
 2.     2.     2.     2.     2.     1.9978 1.9925 0.9451 0.6176 0.4471]
entropy correction =  -0.018746010110008714
cycle= 5 E= -1224.43143483354  delta_E= -34.5  |g|= 5.38  |ddm|= 17.1
HOMO:  -0.44244436534053677 LUMO:  -0.42607285716781124
Fermi energy:      -0.4342493352
[2.0000e+00 2.0000e+00 2.0000e+00 2.0000e+00 2.0000e+00 2.0000e+00
 2.0000e+00 2.0000e+00 2.0000e+00 2.0000e+00 2.0000e+00 2.0000e+00
 2.0000e+00 2.0000e+00 2.0000e+00 2.0000e+00 2.0000e+00 2.0000e+00
 2.0000e+00 2.0000e+00 2.0000e+00 2.0000e+00 2.0000e+00 2.0000e+00
 2.0000e+00 2.0000e+00 2.0000e+00 2.0000e+00 2.0000e+00 2.0000e+00
 2.0000e+00 2.0000e+00 2.0000e+00 2.0000e+00 2.0000e+00 2.0000e+00
 2.0000e+00 2.0000e+00 2.0000e+00 2.0000e+00 2.0000e+00 2.0000e+00
 2.0000e+00 2.0000e+00 2.0000e+00 2.0000e+00 2.0000e+00 2.0000e+00
 2.0000e+00 2.0000e+00 2.0000e+00 2.0000e+00 2.0000e+00 2.0000e+00
 2.0000e+00 2.0000e+00 2.0000e+00 2.0000e+00 2.0000e+00 2.0000e+00
 2.0000e+00 2.0000e+00 2.0000e+00 2.0000e+00 2.0000e+00 2.0000e+00
 2.0000e+00 2.0000e+00 2.0000e+00 2.0000e+00 2.0000e+00 2.0000e+00
 2.0000e+00 2.0000e+00 2.0000e+00 2.0000e+00 2.0000e+00 2.0000e+00
 2.0000e+00 2.0000e+00 2.0000e+00 2.0000e+00 2.0000e+00 2.0000e+00
 2.0000e+00 1.9999e+00 1.9989e+00 1.6748e+00 3.2621e-01 1.5072e-04]
entropy correction =  -0.00894574539117293
cycle= 6 E= -1229.97476863046  delta_E= -5.54  |g|= 3.27  |ddm|= 8.73
HOMO:  -0.4442781253032837 LUMO:  -0.3782419122031945
Fermi energy:      -0.4112100967
[2.     2.     2.     2.     2.     2.     2.     2.     2.     2.
 2.     2.     2.     2.     2.     2.     2.     2.     2.     2.
 2.     2.     2.     2.     2.     2.     2.     2.     2.     2.
 2.     2.     2.     2.     2.     2.     2.     2.     2.     2.
 2.     2.     2.     2.     2.     2.     2.     2.     2.     2.
 2.     2.     2.     2.     2.     2.     2.     2.     2.     2.
 2.     2.     2.     2.     2.     2.     2.     2.     2.     2.
 2.     2.     2.     2.     2.     2.     2.     2.     2.     2.
 2.     2.     2.     2.     2.     2.     1.9999 1.9973 0.0027]
entropy correction =  -0.0002124099600571829
cycle= 7 E= -1231.65400883201  delta_E= -1.68  |g|= 2.26  |ddm|= 3.67
HOMO:  -0.3133475489824928 LUMO:  -0.3061380600795222
Fermi energy:      -0.3082668202
[2.     2.     2.     2.     2.     2.     2.     2.     2.     2.
 2.     2.     2.     2.     2.     2.     2.     2.     2.     2.
 2.     2.     2.     2.     2.     2.     2.     2.     2.     2.
 2.     2.     2.     2.     2.     2.     2.     2.     2.     2.
 2.     2.     2.     2.     2.     2.     2.     2.     2.     2.
 2.     2.     2.     2.     2.     2.     2.     2.     2.     2.
 2.     2.     2.     2.     2.     2.     2.     2.     2.     2.
 2.     2.     2.     2.     2.     2.     2.     2.     2.     2.
 2.     2.     2.     2.     1.9865 1.9211 1.8117 1.4684 0.7903 0.022 ]
entropy correction =  -0.01829640903843978
cycle= 8 E= -1226.57935385044  delta_E= 5.07  |g|= 5.39  |ddm|= 5.07
HOMO:  -0.3990962022802788 LUMO:  -0.3819615261362598
Fermi energy:      -0.3905275329
[2.     2.     2.     2.     2.     2.     2.     2.     2.     2.
 2.     2.     2.     2.     2.     2.     2.     2.     2.     2.
 2.     2.     2.     2.     2.     2.     2.     2.     2.     2.
 2.     2.     2.     2.     2.     2.     2.     2.     2.     2.
 2.     2.     2.     2.     2.     2.     2.     2.     2.     2.
 2.     2.     2.     2.     2.     2.     2.     2.     2.     2.
 2.     2.     2.     2.     2.     2.     2.     2.     2.     2.
 2.     2.     2.     2.     2.     2.     2.     2.     2.     2.
 2.     2.     2.     2.     2.     2.     1.9999 1.6946 0.3055]
entropy correction =  -0.00855511243603618
cycle= 9 E= -1232.73602006621  delta_E= -6.16  |g|= 0.872  |ddm|= 3.89
HOMO:  -0.3967896887764655 LUMO:  -0.3678650636829113
Fermi energy:      -0.3823185016
[2.     2.     2.     2.     2.     2.     2.     2.     2.     2.
 2.     2.     2.     2.     2.     2.     2.     2.     2.     2.
 2.     2.     2.     2.     2.     2.     2.     2.     2.     2.
 2.     2.     2.     2.     2.     2.     2.     2.     2.     2.
 2.     2.     2.     2.     2.     2.     2.     2.     2.     2.
 2.     2.     2.     2.     2.     2.     2.     2.     2.     2.
 2.     2.     2.     2.     2.     2.     2.     2.     2.     2.
 2.     2.     2.     2.     2.     2.     2.     2.     2.     2.
 2.     2.     2.     2.     2.     2.     1.9997 1.8951 0.1052]
entropy correction =  -0.004135375497921941
cycle= 10 E= -1232.44083118967  delta_E= 0.295  |g|= 1.43  |ddm|= 1.26
HOMO:  -0.4069854777327551 LUMO:  -0.364778996241997
Fermi energy:      -0.3858357850
[2.     2.     2.     2.     2.     2.     2.     2.     2.     2.
 2.     2.     2.     2.     2.     2.     2.     2.     2.     2.
 2.     2.     2.     2.     2.     2.     2.     2.     2.     2.
 2.     2.     2.     2.     2.     2.     2.     2.     2.     2.
 2.     2.     2.     2.     2.     2.     2.     2.     2.     2.
 2.     2.     2.     2.     2.     2.     2.     2.     2.     2.
 2.     2.     2.     2.     2.     2.     2.     2.     2.     2.
 2.     2.     2.     2.     2.     2.     2.     2.     2.     2.
 2.     2.     2.     2.     2.     2.     1.9995 1.9713 0.0292]
entropy correction =  -0.0015384286174950218
cycle= 11 E= -1232.46824711877  delta_E= -0.0274  |g|= 1.29  |ddm|= 2.74
HOMO:  -0.4003587035885908 LUMO:  -0.38431912312799293
Fermi energy:      -0.3923368358
[2.     2.     2.     2.     2.     2.     2.     2.     2.     2.
 2.     2.     2.     2.     2.     2.     2.     2.     2.     2.
 2.     2.     2.     2.     2.     2.     2.     2.     2.     2.
 2.     2.     2.     2.     2.     2.     2.     2.     2.     2.
 2.     2.     2.     2.     2.     2.     2.     2.     2.     2.
 2.     2.     2.     2.     2.     2.     2.     2.     2.     2.
 2.     2.     2.     2.     2.     2.     2.     2.     2.     2.
 2.     2.     2.     2.     2.     2.     2.     2.     2.     2.
 2.     2.     2.     2.     2.     2.     1.9998 1.6653 0.335 ]
entropy correction =  -0.009047435495473315
cycle= 12 E= -1232.82873698062  delta_E= -0.36  |g|= 0.57  |ddm|= 0.793
HOMO:  -0.41298364374911517 LUMO:  -0.4003885729064639
Fermi energy:      -0.4066851489
[2.     2.     2.     2.     2.     2.     2.     2.     2.     2.
 2.     2.     2.     2.     2.     2.     2.     2.     2.     2.
 2.     2.     2.     2.     2.     2.     2.     2.     2.     2.
 2.     2.     2.     2.     2.     2.     2.     2.     2.     2.
 2.     2.     2.     2.     2.     2.     2.     2.     2.     2.
 2.     2.     2.     2.     2.     2.     2.     2.     2.     2.
 2.     2.     2.     2.     2.     2.     2.     2.     2.     2.
 2.     2.     2.     2.     2.     2.     2.     2.     2.     2.
 2.     2.     2.     2.     2.     2.     1.9999 1.5579 0.4422]
entropy correction =  -0.01057202163250616
cycle= 13 E= -1232.87706814962  delta_E= -0.0483  |g|= 0.399  |ddm|= 1.34
HOMO:  -0.41584383725401025 LUMO:  -0.403503528649603
Fermi energy:      -0.4096522034
[2.     2.     2.     2.     2.     2.     2.     2.     2.     2.
 2.     2.     2.     2.     2.     2.     2.     2.     2.     2.
 2.     2.     2.     2.     2.     2.     2.     2.     2.     2.
 2.     2.     2.     2.     2.     2.     2.     2.     2.     2.
 2.     2.     2.     2.     2.     2.     2.     2.     2.     2.
 2.     2.     2.     2.     2.     2.     2.     2.     2.     2.
 2.     2.     2.     2.     2.     2.     2.     2.     2.     2.
 2.     2.     2.     2.     2.     2.     2.     2.     2.     2.
 2.     2.     2.     2.     2.     2.     1.997  1.5505 0.4525]
entropy correction =  -0.010787796328621287
cycle= 14 E= -1232.91809560454  delta_E= -0.041  |g|= 0.206  |ddm|= 0.716
HOMO:  -0.40781624219164014 LUMO:  -0.39740278672787716
Fermi energy:      -0.4026075931
[2.     2.     2.     2.     2.     2.     2.     2.     2.     2.
 2.     2.     2.     2.     2.     2.     2.     2.     2.     2.
 2.     2.     2.     2.     2.     2.     2.     2.     2.     2.
 2.     2.     2.     2.     2.     2.     2.     2.     2.     2.
 2.     2.     2.     2.     2.     2.     2.     2.     2.     2.
 2.     2.     2.     2.     2.     2.     2.     2.     2.     2.
 2.     2.     2.     2.     2.     2.     2.     2.     2.     2.
 2.     2.     2.     2.     2.     2.     2.     2.     2.     2.
 2.     2.     2.     2.     2.     2.     1.9997 1.4784 0.5219]
entropy correction =  -0.011494395190495306
cycle= 15 E= -1232.92204473018  delta_E= -0.00395  |g|= 0.14  |ddm|= 0.22
HOMO:  -0.40888809816386895 LUMO:  -0.3982680832511651
Fermi energy:      -0.4035753378
[2.     2.     2.     2.     2.     2.     2.     2.     2.     2.
 2.     2.     2.     2.     2.     2.     2.     2.     2.     2.
 2.     2.     2.     2.     2.     2.     2.     2.     2.     2.
 2.     2.     2.     2.     2.     2.     2.     2.     2.     2.
 2.     2.     2.     2.     2.     2.     2.     2.     2.     2.
 2.     2.     2.     2.     2.     2.     2.     2.     2.     2.
 2.     2.     2.     2.     2.     2.     2.     2.     2.     2.
 2.     2.     2.     2.     2.     2.     2.     2.     2.     2.
 2.     2.     2.     2.     2.     2.     1.9996 1.4864 0.5141]
entropy correction =  -0.011416360747635287
cycle= 16 E= -1232.92690981129  delta_E= -0.00487  |g|= 0.0551  |ddm|= 0.125
HOMO:  -0.40976111262634457 LUMO:  -0.3991980455678041
Fermi energy:      -0.4044767758
[2.     2.     2.     2.     2.     2.     2.     2.     2.     2.
 2.     2.     2.     2.     2.     2.     2.     2.     2.     2.
 2.     2.     2.     2.     2.     2.     2.     2.     2.     2.
 2.     2.     2.     2.     2.     2.     2.     2.     2.     2.
 2.     2.     2.     2.     2.     2.     2.     2.     2.     2.
 2.     2.     2.     2.     2.     2.     2.     2.     2.     2.
 2.     2.     2.     2.     2.     2.     2.     2.     2.     2.
 2.     2.     2.     2.     2.     2.     2.     2.     2.     2.
 2.     2.     2.     2.     2.     2.     1.9996 1.4842 0.5162]
entropy correction =  -0.011439820028426513
cycle= 17 E= -1232.927748795  delta_E= -0.000839  |g|= 0.0111  |ddm|= 0.0656
HOMO:  -0.4099301533879703 LUMO:  -0.3994202686167231
Fermi energy:      -0.4046724591
[2.     2.     2.     2.     2.     2.     2.     2.     2.     2.
 2.     2.     2.     2.     2.     2.     2.     2.     2.     2.
 2.     2.     2.     2.     2.     2.     2.     2.     2.     2.
 2.     2.     2.     2.     2.     2.     2.     2.     2.     2.
 2.     2.     2.     2.     2.     2.     2.     2.     2.     2.
 2.     2.     2.     2.     2.     2.     2.     2.     2.     2.
 2.     2.     2.     2.     2.     2.     2.     2.     2.     2.
 2.     2.     2.     2.     2.     2.     2.     2.     2.     2.
 2.     2.     2.     2.     2.     2.     1.9996 1.4821 0.5183]
entropy correction =  -0.011461012612447285
cycle= 18 E= -1232.92767167086  delta_E= 7.71e-05  |g|= 0.0179  |ddm|= 0.023
HOMO:  -0.4097849073397097 LUMO:  -0.39920178113586585
Fermi energy:      -0.4044905047
[2.     2.     2.     2.     2.     2.     2.     2.     2.     2.
 2.     2.     2.     2.     2.     2.     2.     2.     2.     2.
 2.     2.     2.     2.     2.     2.     2.     2.     2.     2.
 2.     2.     2.     2.     2.     2.     2.     2.     2.     2.
 2.     2.     2.     2.     2.     2.     2.     2.     2.     2.
 2.     2.     2.     2.     2.     2.     2.     2.     2.     2.
 2.     2.     2.     2.     2.     2.     2.     2.     2.     2.
 2.     2.     2.     2.     2.     2.     2.     2.     2.     2.
 2.     2.     2.     2.     2.     2.     1.9996 1.485  0.5155]
entropy correction =  -0.011431915795777039
cycle= 19 E= -1232.92776098442  delta_E= -8.93e-05  |g|= 0.00789  |ddm|= 0.0333
HOMO:  -0.40994717937538067 LUMO:  -0.3994091479079875
Fermi energy:      -0.4046753572
[2.     2.     2.     2.     2.     2.     2.     2.     2.     2.
 2.     2.     2.     2.     2.     2.     2.     2.     2.     2.
 2.     2.     2.     2.     2.     2.     2.     2.     2.     2.
 2.     2.     2.     2.     2.     2.     2.     2.     2.     2.
 2.     2.     2.     2.     2.     2.     2.     2.     2.     2.
 2.     2.     2.     2.     2.     2.     2.     2.     2.     2.
 2.     2.     2.     2.     2.     2.     2.     2.     2.     2.
 2.     2.     2.     2.     2.     2.     2.     2.     2.     2.
 2.     2.     2.     2.     2.     2.     1.9996 1.4832 0.5172]
entropy correction =  -0.011449979820695162
cycle= 20 E= -1232.92777575037  delta_E= -1.48e-05  |g|= 0.00193  |ddm|= 0.0101
HOMO:  -0.4098874629986747 LUMO:  -0.399326573964329
Fermi energy:      -0.4046042006
[2.     2.     2.     2.     2.     2.     2.     2.     2.     2.
 2.     2.     2.     2.     2.     2.     2.     2.     2.     2.
 2.     2.     2.     2.     2.     2.     2.     2.     2.     2.
 2.     2.     2.     2.     2.     2.     2.     2.     2.     2.
 2.     2.     2.     2.     2.     2.     2.     2.     2.     2.
 2.     2.     2.     2.     2.     2.     2.     2.     2.     2.
 2.     2.     2.     2.     2.     2.     2.     2.     2.     2.
 2.     2.     2.     2.     2.     2.     2.     2.     2.     2.
 2.     2.     2.     2.     2.     2.     1.9996 1.4841 0.5163]
entropy correction =  -0.01144079381346542
cycle= 21 E= -1232.92777566991  delta_E= 8.05e-08  |g|= 0.00213  |ddm|= 0.0028
HOMO:  -0.4099323707150623 LUMO:  -0.39939080925533504
Fermi energy:      -0.4046587936
[2.     2.     2.     2.     2.     2.     2.     2.     2.     2.
 2.     2.     2.     2.     2.     2.     2.     2.     2.     2.
 2.     2.     2.     2.     2.     2.     2.     2.     2.     2.
 2.     2.     2.     2.     2.     2.     2.     2.     2.     2.
 2.     2.     2.     2.     2.     2.     2.     2.     2.     2.
 2.     2.     2.     2.     2.     2.     2.     2.     2.     2.
 2.     2.     2.     2.     2.     2.     2.     2.     2.     2.
 2.     2.     2.     2.     2.     2.     2.     2.     2.     2.
 2.     2.     2.     2.     2.     2.     1.9996 1.4834 0.5171]
entropy correction =  -0.011448484863741726
cycle= 22 E= -1232.92777632975  delta_E= -6.6e-07  |g|= 0.0011  |ddm|= 0.00306
HOMO:  -0.40991397071871377 LUMO:  -0.39936944617162584
Fermi energy:      -0.4046389068
[2.     2.     2.     2.     2.     2.     2.     2.     2.     2.
 2.     2.     2.     2.     2.     2.     2.     2.     2.     2.
 2.     2.     2.     2.     2.     2.     2.     2.     2.     2.
 2.     2.     2.     2.     2.     2.     2.     2.     2.     2.
 2.     2.     2.     2.     2.     2.     2.     2.     2.     2.
 2.     2.     2.     2.     2.     2.     2.     2.     2.     2.
 2.     2.     2.     2.     2.     2.     2.     2.     2.     2.
 2.     2.     2.     2.     2.     2.     2.     2.     2.     2.
 2.     2.     2.     2.     2.     2.     1.9996 1.4835 0.517 ]
entropy correction =  -0.01144731912053154
cycle= 23 E= -1232.92777667743  delta_E= -3.48e-07  |g|= 0.000333  |ddm|= 0.00126
HOMO:  -0.40992514175587624 LUMO:  -0.3993797172164515
Fermi energy:      -0.4046496241
[2.     2.     2.     2.     2.     2.     2.     2.     2.     2.
 2.     2.     2.     2.     2.     2.     2.     2.     2.     2.
 2.     2.     2.     2.     2.     2.     2.     2.     2.     2.
 2.     2.     2.     2.     2.     2.     2.     2.     2.     2.
 2.     2.     2.     2.     2.     2.     2.     2.     2.     2.
 2.     2.     2.     2.     2.     2.     2.     2.     2.     2.
 2.     2.     2.     2.     2.     2.     2.     2.     2.     2.
 2.     2.     2.     2.     2.     2.     2.     2.     2.     2.
 2.     2.     2.     2.     2.     2.     1.9996 1.4835 0.5169]
entropy correction =  -0.011446978438397716
cycle= 24 E= -1232.92777670361  delta_E= -2.62e-08  |g|= 9.83e-05  |ddm|= 0.000352
HOMO:  -0.40992172513492103 LUMO:  -0.3993776154845638
Fermi energy:      -0.4046468684
[2.     2.     2.     2.     2.     2.     2.     2.     2.     2.
 2.     2.     2.     2.     2.     2.     2.     2.     2.     2.
 2.     2.     2.     2.     2.     2.     2.     2.     2.     2.
 2.     2.     2.     2.     2.     2.     2.     2.     2.     2.
 2.     2.     2.     2.     2.     2.     2.     2.     2.     2.
 2.     2.     2.     2.     2.     2.     2.     2.     2.     2.
 2.     2.     2.     2.     2.     2.     2.     2.     2.     2.
 2.     2.     2.     2.     2.     2.     2.     2.     2.     2.
 2.     2.     2.     2.     2.     2.     1.9996 1.4835 0.517 ]
entropy correction =  -0.011447488696186532
cycle= 25 E= -1232.92777670558  delta_E= -1.97e-09  |g|= 4.32e-05  |ddm|= 0.000127
HOMO:  -0.4099226485422753 LUMO:  -0.3993786499414271
Fermi energy:      -0.4046478470
[2.     2.     2.     2.     2.     2.     2.     2.     2.     2.
 2.     2.     2.     2.     2.     2.     2.     2.     2.     2.
 2.     2.     2.     2.     2.     2.     2.     2.     2.     2.
 2.     2.     2.     2.     2.     2.     2.     2.     2.     2.
 2.     2.     2.     2.     2.     2.     2.     2.     2.     2.
 2.     2.     2.     2.     2.     2.     2.     2.     2.     2.
 2.     2.     2.     2.     2.     2.     2.     2.     2.     2.
 2.     2.     2.     2.     2.     2.     2.     2.     2.     2.
 2.     2.     2.     2.     2.     2.     1.9996 1.4835 0.517 ]
entropy correction =  -0.011447535601121031
cycle= 26 E= -1232.92777670498  delta_E= 5.97e-10  |g|= 6.2e-05  |ddm|= 8.26e-05
HOMO:  -0.40992287267936733 LUMO:  -0.3993788886697676
Fermi energy:      -0.4046480785
[2.     2.     2.     2.     2.     2.     2.     2.     2.     2.
 2.     2.     2.     2.     2.     2.     2.     2.     2.     2.
 2.     2.     2.     2.     2.     2.     2.     2.     2.     2.
 2.     2.     2.     2.     2.     2.     2.     2.     2.     2.
 2.     2.     2.     2.     2.     2.     2.     2.     2.     2.
 2.     2.     2.     2.     2.     2.     2.     2.     2.     2.
 2.     2.     2.     2.     2.     2.     2.     2.     2.     2.
 2.     2.     2.     2.     2.     2.     2.     2.     2.     2.
 2.     2.     2.     2.     2.     2.     1.9996 1.4835 0.517 ]
entropy correction =  -0.01144754116417738
cycle= 27 E= -1232.92777669967  delta_E= 5.31e-09  |g|= 3.05e-05  |ddm|= 5.77e-05
HOMO:  -0.4099223923351457 LUMO:  -0.3993781480811458
Fermi energy:      -0.4046474677
[2.     2.     2.     2.     2.     2.     2.     2.     2.     2.
 2.     2.     2.     2.     2.     2.     2.     2.     2.     2.
 2.     2.     2.     2.     2.     2.     2.     2.     2.     2.
 2.     2.     2.     2.     2.     2.     2.     2.     2.     2.
 2.     2.     2.     2.     2.     2.     2.     2.     2.     2.
 2.     2.     2.     2.     2.     2.     2.     2.     2.     2.
 2.     2.     2.     2.     2.     2.     2.     2.     2.     2.
 2.     2.     2.     2.     2.     2.     2.     2.     2.     2.
 2.     2.     2.     2.     2.     2.     1.9996 1.4835 0.517 ]
entropy correction =  -0.011447438126063032
cycle= 28 E= -1232.92777669992  delta_E= -2.55e-10  |g|= 6.53e-06  |ddm|= 3.62e-05
HOMO:  -0.40992310596334275 LUMO:  -0.39937902090774463
Fermi energy:      -0.4046482614
[2.     2.     2.     2.     2.     2.     2.     2.     2.     2.
 2.     2.     2.     2.     2.     2.     2.     2.     2.     2.
 2.     2.     2.     2.     2.     2.     2.     2.     2.     2.
 2.     2.     2.     2.     2.     2.     2.     2.     2.     2.
 2.     2.     2.     2.     2.     2.     2.     2.     2.     2.
 2.     2.     2.     2.     2.     2.     2.     2.     2.     2.
 2.     2.     2.     2.     2.     2.     2.     2.     2.     2.
 2.     2.     2.     2.     2.     2.     2.     2.     2.     2.
 2.     2.     2.     2.     2.     2.     1.9996 1.4835 0.517 ]
entropy correction =  -0.01144749968767028
Extra cycle  E= -1232.92777669601  delta_E= 3.91e-09  |g|= 0.000114  |ddm|= 0.000161
converged SCF energy = -1232.92777669601
PATFIA.py:11: DeprecationWarning: time.clock has been deprecated in Python 3.3 and will be removed from Python 3.8: use time.perf_counter or time.process_time instead
  t0 = (time.clock(), time.time())
ECP lanl2dz not found for  O
ECP lanl2dz not found for  N
ECP lanl2dz not found for  H
ECP lanl2dz not found for  C
<class 'pydmfet.qcwrap.pyscf_rks_ao.rks_ao'> does not have attributes  add_coredm_ext_energy dm_guess vext_1e ne_frozen coredm
