#INFO: **** input file is /tigress/xingz/pydmfet/examples/research/Cu2/PATFIA.py ****
from pydmfet import locints, sdmfet, oep, tools, dfet_ao, proj_ao
from pydmfet.dfet_ao import dfet
from pydmfet.qcwrap.pyscf_rks_ao import rks_ao
from pyscf import gto, scf,dft, ao2mo,cc
import numpy as np
from pyscf.tools import molden, cubegen
import copy,time
from pydmfet.tools.sym import h_lattice_sym_tab
import time

t0 = (time.clock(), time.time())

bas1 = '6-31G*'
bas2 = 'lanl2dz'
ecp = 'lanl2dz'
temp = 0.005


mol = gto.Mole()
mol.atom = open('PATFIA.xyz').read()
mol.basis = {'N':bas1,'O':bas1, 'C':bas1, 'H':bas1, 'Cu':bas2}
mol.ecp = {'Cu':ecp}
mol.charge = 2
mol.build(max_memory = 16000, verbose=4)

mf = rks_ao(mol,smear_sigma = temp)
mf.xc = 'pbe0'
mf.max_cycle = 100
mf.scf(dm0=None)

#INFO: ******************** input file end ********************


System: uname_result(system='Linux', node='tigercpu.princeton.edu', release='3.10.0-957.27.2.el7.x86_64', version='#1 SMP Tue Jul 30 11:12:20 EDT 2019', machine='x86_64', processor='x86_64')  Threads 40
Python 3.7.0 (default, Jun 28 2018, 13:15:42) 
[GCC 7.2.0]
numpy 1.16.4  scipy 1.4.0.dev0+0f78e0f
Date: Sun Sep  8 14:54:00 2019
PySCF version 1.5
PySCF path  /home/xingz/.local/lib/python3.7/site-packages/pyscf

[CONFIG] conf_file None
[INPUT] verbose = 4
[INPUT] num. atoms = 47
[INPUT] num. electrons = 176
[INPUT] charge = 2
[INPUT] spin (= nelec alpha-beta = 2S) = 0
[INPUT] symmetry False subgroup None
[INPUT] Mole.unit = angstrom
[INPUT]  1 Cu     0.000000000000   0.000000000000   0.000000000000 AA    0.000000000000   0.000000000000   0.000000000000 Bohr
[INPUT]  2 Cu     0.925000000000   1.720000000000  -2.581000000000 AA    1.747996665223   3.250328934252  -4.877383127502 Bohr
[INPUT]  3 H     -1.006000000000  -0.187000000000  -3.472000000000 AA   -1.901064481312  -0.353378785294  -6.561129104490 Bohr
[INPUT]  4 H      2.069000000000   0.732000000000   2.139000000000 AA    3.909843351725   1.383279523182   4.042124180445 Bohr
[INPUT]  5 O     -0.181000000000   0.318000000000  -1.874000000000 AA   -0.342040428546   0.600932907612  -3.541346757435 Bohr
[INPUT]  6 O      2.524000000000   0.972000000000  -1.839000000000 AA    4.769668738402   1.836813793077  -3.475206343075 Bohr
[INPUT]  7 O      1.892000000000  -0.349000000000  -0.158000000000 AA    3.575361827677  -0.659514417473  -0.298576727681 Bohr
[INPUT]  8 H      1.253000000000   0.938000000000   3.462000000000 AA    2.367826834080   1.772563104842   6.542231843244 Bohr
[INPUT]  9 C      1.203000000000   0.934000000000   2.503000000000 AA    2.273340527852   1.765004200344   4.729984489786 Bohr
[INPUT] 10 H      0.915000000000   1.792000000000   2.191000000000 AA    1.729099403977   3.386389215221   4.140389938922 Bohr
[INPUT] 11 H      0.122000000000  -2.063000000000   2.097000000000 AA    0.230546587197  -3.898504994978   3.962755683213 Bohr
[INPUT] 12 N      0.218000000000  -0.118000000000   2.058000000000 AA    0.411960295155  -0.222987682699   3.889056364355 Bohr
[INPUT] 13 N     -1.942000000000   0.181000000000   0.393000000000 AA   -3.669848133905   0.342040428546   0.742662366954 Bohr
[INPUT] 14 H     -2.227000000000   0.999000000000   0.145000000000 AA   -4.208420079406   1.887836398440   0.274010288062 Bohr
[INPUT] 15 H     -2.405000000000  -0.431000000000  -0.076000000000 AA   -4.544791329579  -0.814471959688  -0.143619185467 Bohr
[INPUT] 16 N      2.064000000000   3.355000000000  -3.079000000000 AA    3.900394721102   6.340031147916  -5.818466737536 Bohr
[INPUT] 17 N     -0.499000000000   2.585000000000  -3.664000000000 AA   -0.942973336158   4.884942032001  -6.923956520406 Bohr
[INPUT] 18 H     -0.800000000000   2.003000000000  -4.281000000000 AA   -1.511780899652   3.785121427504  -8.089917539263 Bohr
[INPUT] 19 H     -1.190000000000   2.803000000000  -3.128000000000 AA   -2.248774088232   5.296902327156  -5.911063317640 Bohr
[INPUT] 20 H      3.773315000000  -0.253545000000  -0.829399000000 AA    7.130531931713  -0.479130610253  -1.567336957988 Bohr
[INPUT] 21 H      1.627000000000   4.936000000000  -4.249000000000 AA    3.074584404667   9.327688150853  -8.029446303277 Bohr
[INPUT] 22 C      1.138000000000   4.370000000000  -3.637000000000 AA    2.150508329755   8.258103164349  -6.872933915043 Bohr
[INPUT] 23 H     -1.504000000000  -0.959000000000  -2.201000000000 AA   -2.842148091346  -1.812247353458  -4.159287200168 Bohr
[INPUT] 24 H      2.790000000000   3.400000000000  -1.215000000000 AA    5.272335887537   6.425068823521  -2.296017241347 Bohr
[INPUT] 25 C      3.051000000000   2.978000000000  -4.104000000000 AA    5.765554406048   5.627604398955  -7.755436015215 Bohr
[INPUT] 26 H     -0.712000000000   4.452000000000  -4.377000000000 AA   -1.345485000690   8.413060706564  -8.271331247221 Bohr
[INPUT] 27 H      0.812000000000   4.925000000000  -2.911000000000 AA    1.534457613147   9.306901163483  -5.500992748609 Bohr
[INPUT] 28 C      2.731000000000   0.106000000000  -0.917000000000 AA    5.160842046187   0.200310969204  -1.732878856226 Bohr
[INPUT] 29 H     -1.948000000000   0.525000000000  -2.439000000000 AA   -3.681186490653   0.992106215397  -4.609042017814 Bohr
[INPUT] 30 C     -0.001000000000   3.794000000000  -4.333000000000 AA   -0.001889726125   7.169620916600  -8.188183297740 Bohr
[INPUT] 31 C     -1.230000000000  -0.106000000000  -2.540000000000 AA   -2.324363133215  -0.200310969204  -4.799904356395 Bohr
[INPUT] 32 H      2.292000000000   4.800000000000  -1.712000000000 AA    4.331252277503   9.070685397912  -3.235211125255 Bohr
[INPUT] 33 H      3.655000000000   4.224000000000  -2.228000000000 AA    6.906948985285   7.982203150163  -4.210309805531 Bohr
[INPUT] 34 C      2.761000000000   4.003000000000  -1.962000000000 AA    5.217533829924   7.564573676634  -3.707642656397 Bohr
[INPUT] 35 H      3.308000000000   2.060000000000  -3.979000000000 AA    6.251214020061   3.892835816604  -7.519220249644 Bohr
[INPUT] 36 H      2.663000000000   3.083000000000  -4.977000000000 AA    5.032340669717   5.826025642034  -9.405166921960 Bohr
[INPUT] 37 H      3.825000000000   3.539000000000  -4.028000000000 AA    7.228202426461   6.687740754836  -7.611816829748 Bohr
[INPUT] 38 H      0.259000000000   3.573000000000  -5.242000000000 AA    0.489439066262   6.751991443071  -9.905944344970 Bohr
[INPUT] 39 C     -1.030000000000   0.395000000000   2.631000000000 AA   -1.946417908302   0.746441819203   4.971869433731 Bohr
[INPUT] 40 H     -1.136000000000   0.061000000000   3.533000000000 AA   -2.146728877506   0.115273293598   6.676402398088 Bohr
[INPUT] 41 H     -0.989000000000   1.366000000000   2.672000000000 AA   -1.868939137195   2.581365886156   5.049348204838 Bohr
[INPUT] 42 C     -2.185000000000  -0.009000000000   1.814000000000 AA   -4.129051582175  -0.017007535121   3.427963189961 Bohr
[INPUT] 43 H     -2.960000000000   0.509000000000   2.080000000000 AA   -5.593589328713   0.961870597404   3.930630339095 Bohr
[INPUT] 44 H     -2.380000000000  -0.944000000000   1.984000000000 AA   -4.497548176465  -1.783901461589   3.749216631137 Bohr
[INPUT] 45 C      0.639000000000  -1.379000000000   2.522000000000 AA    1.207534993597  -2.605932325775   4.765889286153 Bohr
[INPUT] 46 H      0.514000000000  -1.423000000000   3.474000000000 AA    0.971319228026  -2.689080275256   6.564908556739 Bohr
[INPUT] 47 H      1.568000000000  -1.499000000000   2.316000000000 AA    2.963090563318  -2.832699460723   4.376605704493 Bohr

nuclear repulsion = 2335.75371906719
number of shells = 172
number of NR pGTOs = 661
number of NR cGTOs = 338
basis = {'N': '6-31G*', 'O': '6-31G*', 'C': '6-31G*', 'H': '6-31G*', 'Cu': 'lanl2dz'}
ecp = {'Cu': 'lanl2dz'}
CPU time:         4.49
rks_ao.ne_frozen =  0


******** <class 'pydmfet.qcwrap.pyscf_rks_ao.rks_ao'> flags ********
method = rks_ao-RKS-RHF
initial guess = minao
damping factor = 0
level shift factor = 0
DIIS = <class 'pyscf.scf.diis.CDIIS'>
DIIS start cycle = 1
DIIS space = 8
SCF tol = 1e-09
SCF gradient tol = None
max. SCF cycles = 100
direct_scf = False
chkfile to save SCF result = /tigress/xingz/pydmfet/examples/research/Cu2/tmpd5e0_2dl
max_memory 16000 MB (current use 66 MB)
XC functionals = pbe0
small_rho_cutoff = 1e-07
radial grids: 
    Treutler-Ahlrichs (JCP 102, 346 (M4)) radial grids
    
becke partition: Becke, JCP, 88, 2547 (1988)
pruning grids: <function nwchem_prune at 0x2b866e7b7400>
grids dens level: 3
symmetrized grids: False
atomic radii adjust function: <function treutler_atomic_radii_adjust at 0x2b866e7b7378>
Set gradient conv threshold to 3.16228e-05
tot grids = 559510
init E= -1234.24839637835
HOMO:  0.024357349620888185 LUMO:  0.03990618260372959
Fermi energy:       0.0319939774
[2.0000e+00 2.0000e+00 2.0000e+00 2.0000e+00 2.0000e+00 2.0000e+00
 2.0000e+00 2.0000e+00 2.0000e+00 2.0000e+00 2.0000e+00 2.0000e+00
 2.0000e+00 2.0000e+00 2.0000e+00 2.0000e+00 2.0000e+00 2.0000e+00
 2.0000e+00 2.0000e+00 2.0000e+00 2.0000e+00 2.0000e+00 2.0000e+00
 2.0000e+00 2.0000e+00 2.0000e+00 2.0000e+00 2.0000e+00 2.0000e+00
 2.0000e+00 2.0000e+00 2.0000e+00 2.0000e+00 2.0000e+00 2.0000e+00
 2.0000e+00 2.0000e+00 2.0000e+00 2.0000e+00 2.0000e+00 2.0000e+00
 2.0000e+00 2.0000e+00 2.0000e+00 2.0000e+00 2.0000e+00 2.0000e+00
 2.0000e+00 2.0000e+00 2.0000e+00 2.0000e+00 2.0000e+00 2.0000e+00
 2.0000e+00 2.0000e+00 2.0000e+00 2.0000e+00 2.0000e+00 2.0000e+00
 2.0000e+00 2.0000e+00 2.0000e+00 2.0000e+00 2.0000e+00 2.0000e+00
 2.0000e+00 2.0000e+00 2.0000e+00 2.0000e+00 2.0000e+00 2.0000e+00
 2.0000e+00 2.0000e+00 2.0000e+00 2.0000e+00 2.0000e+00 2.0000e+00
 2.0000e+00 2.0000e+00 2.0000e+00 2.0000e+00 1.9995e+00 1.9970e+00
 1.9743e+00 1.9726e+00 1.9654e+00 1.6432e+00 3.4090e-01 6.2483e-02
 3.9124e-02 5.3327e-03 1.5834e-04]
entropy correction =  -0.014228876083234674
cycle= 1 E= -1153.90400738664  delta_E= 80.3  |g|= 11.4  |ddm|= 25.2
HOMO:  -1.1461831803198121 LUMO:  -1.1241065147673241
Fermi energy:      -1.1348957796
[2.0000e+00 2.0000e+00 2.0000e+00 2.0000e+00 2.0000e+00 2.0000e+00
 2.0000e+00 2.0000e+00 2.0000e+00 2.0000e+00 2.0000e+00 2.0000e+00
 2.0000e+00 2.0000e+00 2.0000e+00 2.0000e+00 2.0000e+00 2.0000e+00
 2.0000e+00 2.0000e+00 2.0000e+00 2.0000e+00 2.0000e+00 2.0000e+00
 2.0000e+00 2.0000e+00 2.0000e+00 2.0000e+00 2.0000e+00 2.0000e+00
 2.0000e+00 2.0000e+00 2.0000e+00 2.0000e+00 2.0000e+00 2.0000e+00
 2.0000e+00 2.0000e+00 2.0000e+00 2.0000e+00 2.0000e+00 2.0000e+00
 2.0000e+00 2.0000e+00 2.0000e+00 2.0000e+00 2.0000e+00 2.0000e+00
 2.0000e+00 2.0000e+00 2.0000e+00 2.0000e+00 2.0000e+00 2.0000e+00
 2.0000e+00 2.0000e+00 2.0000e+00 2.0000e+00 2.0000e+00 2.0000e+00
 2.0000e+00 2.0000e+00 2.0000e+00 2.0000e+00 2.0000e+00 2.0000e+00
 2.0000e+00 2.0000e+00 2.0000e+00 2.0000e+00 2.0000e+00 2.0000e+00
 2.0000e+00 2.0000e+00 2.0000e+00 2.0000e+00 2.0000e+00 2.0000e+00
 2.0000e+00 2.0000e+00 2.0000e+00 2.0000e+00 2.0000e+00 2.0000e+00
 2.0000e+00 2.0000e+00 1.9798e+00 1.8106e+00 2.0720e-01 1.8703e-03
 4.5362e-04 1.2524e-04]
entropy correction =  -0.007130578482793772
cycle= 2 E= -1003.91699360761  delta_E=  150  |g|= 23.3  |ddm|=   66
HOMO:  -0.8725464392219019 LUMO:  -0.8541417001096377
Fermi energy:      -0.8628514464
[2.     2.     2.     2.     2.     2.     2.     2.     2.     2.
 2.     2.     2.     2.     2.     2.     2.     2.     2.     2.
 2.     2.     2.     2.     2.     2.     2.     2.     2.     2.
 2.     2.     2.     2.     2.     2.     2.     2.     2.     2.
 2.     2.     2.     2.     2.     2.     2.     2.     2.     2.
 2.     2.     2.     2.     2.     2.     2.     2.     2.     2.
 2.     2.     2.     2.     2.     2.     2.     2.     2.     2.
 2.     2.     2.     2.     2.     2.     2.     2.     2.     2.
 2.     2.     2.     2.     2.     1.9999 1.9424 1.7485 0.2981 0.0111]
entropy correction =  -0.009650386100626544
cycle= 3 E= -1175.187147551  delta_E= -171  |g|=   12  |ddm|= 53.3
HOMO:  -0.681538403119667 LUMO:  -0.6802251883319305
Fermi energy:      -0.6812846138
[2.0000e+00 2.0000e+00 2.0000e+00 2.0000e+00 2.0000e+00 2.0000e+00
 2.0000e+00 2.0000e+00 2.0000e+00 2.0000e+00 2.0000e+00 2.0000e+00
 2.0000e+00 2.0000e+00 2.0000e+00 2.0000e+00 2.0000e+00 2.0000e+00
 2.0000e+00 2.0000e+00 2.0000e+00 2.0000e+00 2.0000e+00 2.0000e+00
 2.0000e+00 2.0000e+00 2.0000e+00 2.0000e+00 2.0000e+00 2.0000e+00
 2.0000e+00 2.0000e+00 2.0000e+00 2.0000e+00 2.0000e+00 2.0000e+00
 2.0000e+00 2.0000e+00 2.0000e+00 2.0000e+00 2.0000e+00 2.0000e+00
 2.0000e+00 2.0000e+00 2.0000e+00 2.0000e+00 2.0000e+00 2.0000e+00
 2.0000e+00 2.0000e+00 2.0000e+00 2.0000e+00 2.0000e+00 2.0000e+00
 2.0000e+00 2.0000e+00 2.0000e+00 2.0000e+00 2.0000e+00 2.0000e+00
 2.0000e+00 2.0000e+00 2.0000e+00 2.0000e+00 2.0000e+00 2.0000e+00
 2.0000e+00 2.0000e+00 2.0000e+00 2.0000e+00 2.0000e+00 2.0000e+00
 2.0000e+00 2.0000e+00 2.0000e+00 2.0000e+00 2.0000e+00 2.0000e+00
 2.0000e+00 2.0000e+00 2.0000e+00 2.0000e+00 1.9998e+00 1.9985e+00
 1.9918e+00 1.9877e+00 1.9621e+00 1.0254e+00 8.9445e-01 1.3337e-01
 6.0528e-03 4.7568e-04 2.8186e-04]
entropy correction =  -0.01814547433584148
cycle= 4 E= -1212.98772807441  delta_E= -37.8  |g|= 7.25  |ddm|= 16.3
HOMO:  -0.5238709475780037 LUMO:  -0.46345192654212514
Fermi energy:      -0.4945465056
[2.0000e+00 2.0000e+00 2.0000e+00 2.0000e+00 2.0000e+00 2.0000e+00
 2.0000e+00 2.0000e+00 2.0000e+00 2.0000e+00 2.0000e+00 2.0000e+00
 2.0000e+00 2.0000e+00 2.0000e+00 2.0000e+00 2.0000e+00 2.0000e+00
 2.0000e+00 2.0000e+00 2.0000e+00 2.0000e+00 2.0000e+00 2.0000e+00
 2.0000e+00 2.0000e+00 2.0000e+00 2.0000e+00 2.0000e+00 2.0000e+00
 2.0000e+00 2.0000e+00 2.0000e+00 2.0000e+00 2.0000e+00 2.0000e+00
 2.0000e+00 2.0000e+00 2.0000e+00 2.0000e+00 2.0000e+00 2.0000e+00
 2.0000e+00 2.0000e+00 2.0000e+00 2.0000e+00 2.0000e+00 2.0000e+00
 2.0000e+00 2.0000e+00 2.0000e+00 2.0000e+00 2.0000e+00 2.0000e+00
 2.0000e+00 2.0000e+00 2.0000e+00 2.0000e+00 2.0000e+00 2.0000e+00
 2.0000e+00 2.0000e+00 2.0000e+00 2.0000e+00 2.0000e+00 2.0000e+00
 2.0000e+00 2.0000e+00 2.0000e+00 2.0000e+00 2.0000e+00 2.0000e+00
 2.0000e+00 2.0000e+00 2.0000e+00 2.0000e+00 2.0000e+00 2.0000e+00
 2.0000e+00 2.0000e+00 2.0000e+00 2.0000e+00 2.0000e+00 2.0000e+00
 2.0000e+00 2.0000e+00 2.0000e+00 1.9943e+00 3.9749e-03 1.5879e-03]
entropy correction =  -0.0004088138483771256
cycle= 5 E= -1222.7031688347  delta_E= -9.72  |g|= 5.84  |ddm|= 12.1
HOMO:  -0.529264796723281 LUMO:  -0.48453849993337345
Fermi energy:      -0.5069020119
[2.     2.     2.     2.     2.     2.     2.     2.     2.     2.
 2.     2.     2.     2.     2.     2.     2.     2.     2.     2.
 2.     2.     2.     2.     2.     2.     2.     2.     2.     2.
 2.     2.     2.     2.     2.     2.     2.     2.     2.     2.
 2.     2.     2.     2.     2.     2.     2.     2.     2.     2.
 2.     2.     2.     2.     2.     2.     2.     2.     2.     2.
 2.     2.     2.     2.     2.     2.     2.     2.     2.     2.
 2.     2.     2.     2.     2.     2.     2.     2.     2.     2.
 2.     2.     2.     2.     2.     2.     2.     1.9774 0.0226]
entropy correction =  -0.0012370886469156475
cycle= 6 E= -1229.90155013232  delta_E= -7.2  |g|= 3.52  |ddm|= 8.53
HOMO:  -0.5494977308030615 LUMO:  -0.5240671364690643
Fermi energy:      -0.5353694991
[2.     2.     2.     2.     2.     2.     2.     2.     2.     2.
 2.     2.     2.     2.     2.     2.     2.     2.     2.     2.
 2.     2.     2.     2.     2.     2.     2.     2.     2.     2.
 2.     2.     2.     2.     2.     2.     2.     2.     2.     2.
 2.     2.     2.     2.     2.     2.     2.     2.     2.     2.
 2.     2.     2.     2.     2.     2.     2.     2.     2.     2.
 2.     2.     2.     2.     2.     2.     2.     2.     2.     2.
 2.     2.     2.     2.     2.     2.     2.     2.     2.     2.
 2.     2.     2.     2.     2.     1.9953 1.9277 1.8881 0.1889]
entropy correction =  -0.0070040736148471215
cycle= 7 E= -1231.49634092021  delta_E= -1.59  |g|= 2.33  |ddm|= 3.21
HOMO:  -0.5572469315540077 LUMO:  -0.4834415108664671
Fermi energy:      -0.5202085741
[2.0000e+00 2.0000e+00 2.0000e+00 2.0000e+00 2.0000e+00 2.0000e+00
 2.0000e+00 2.0000e+00 2.0000e+00 2.0000e+00 2.0000e+00 2.0000e+00
 2.0000e+00 2.0000e+00 2.0000e+00 2.0000e+00 2.0000e+00 2.0000e+00
 2.0000e+00 2.0000e+00 2.0000e+00 2.0000e+00 2.0000e+00 2.0000e+00
 2.0000e+00 2.0000e+00 2.0000e+00 2.0000e+00 2.0000e+00 2.0000e+00
 2.0000e+00 2.0000e+00 2.0000e+00 2.0000e+00 2.0000e+00 2.0000e+00
 2.0000e+00 2.0000e+00 2.0000e+00 2.0000e+00 2.0000e+00 2.0000e+00
 2.0000e+00 2.0000e+00 2.0000e+00 2.0000e+00 2.0000e+00 2.0000e+00
 2.0000e+00 2.0000e+00 2.0000e+00 2.0000e+00 2.0000e+00 2.0000e+00
 2.0000e+00 2.0000e+00 2.0000e+00 2.0000e+00 2.0000e+00 2.0000e+00
 2.0000e+00 2.0000e+00 2.0000e+00 2.0000e+00 2.0000e+00 2.0000e+00
 2.0000e+00 2.0000e+00 2.0000e+00 2.0000e+00 2.0000e+00 2.0000e+00
 2.0000e+00 2.0000e+00 2.0000e+00 2.0000e+00 2.0000e+00 2.0000e+00
 2.0000e+00 2.0000e+00 2.0000e+00 2.0000e+00 2.0000e+00 2.0000e+00
 2.0000e+00 2.0000e+00 2.0000e+00 1.9988e+00 1.2800e-03]
entropy correction =  -0.00010865338976225032
cycle= 8 E= -1232.14120473158  delta_E= -0.645  |g|= 1.52  |ddm|= 2.66
HOMO:  -0.49539024125738496 LUMO:  -0.42290063736484595
Fermi energy:      -0.4590076462
[2.0000e+00 2.0000e+00 2.0000e+00 2.0000e+00 2.0000e+00 2.0000e+00
 2.0000e+00 2.0000e+00 2.0000e+00 2.0000e+00 2.0000e+00 2.0000e+00
 2.0000e+00 2.0000e+00 2.0000e+00 2.0000e+00 2.0000e+00 2.0000e+00
 2.0000e+00 2.0000e+00 2.0000e+00 2.0000e+00 2.0000e+00 2.0000e+00
 2.0000e+00 2.0000e+00 2.0000e+00 2.0000e+00 2.0000e+00 2.0000e+00
 2.0000e+00 2.0000e+00 2.0000e+00 2.0000e+00 2.0000e+00 2.0000e+00
 2.0000e+00 2.0000e+00 2.0000e+00 2.0000e+00 2.0000e+00 2.0000e+00
 2.0000e+00 2.0000e+00 2.0000e+00 2.0000e+00 2.0000e+00 2.0000e+00
 2.0000e+00 2.0000e+00 2.0000e+00 2.0000e+00 2.0000e+00 2.0000e+00
 2.0000e+00 2.0000e+00 2.0000e+00 2.0000e+00 2.0000e+00 2.0000e+00
 2.0000e+00 2.0000e+00 2.0000e+00 2.0000e+00 2.0000e+00 2.0000e+00
 2.0000e+00 2.0000e+00 2.0000e+00 2.0000e+00 2.0000e+00 2.0000e+00
 2.0000e+00 2.0000e+00 2.0000e+00 2.0000e+00 2.0000e+00 2.0000e+00
 2.0000e+00 2.0000e+00 2.0000e+00 2.0000e+00 2.0000e+00 2.0000e+00
 2.0000e+00 2.0000e+00 1.9999e+00 1.9986e+00 1.4605e-03]
entropy correction =  -0.00012160527623850735
cycle= 9 E= -1232.11043960058  delta_E= 0.0308  |g|= 1.74  |ddm|= 2.96
HOMO:  -0.38148294129953275 LUMO:  -0.30309421607446974
Fermi energy:      -0.3422465237
[2.0000e+00 2.0000e+00 2.0000e+00 2.0000e+00 2.0000e+00 2.0000e+00
 2.0000e+00 2.0000e+00 2.0000e+00 2.0000e+00 2.0000e+00 2.0000e+00
 2.0000e+00 2.0000e+00 2.0000e+00 2.0000e+00 2.0000e+00 2.0000e+00
 2.0000e+00 2.0000e+00 2.0000e+00 2.0000e+00 2.0000e+00 2.0000e+00
 2.0000e+00 2.0000e+00 2.0000e+00 2.0000e+00 2.0000e+00 2.0000e+00
 2.0000e+00 2.0000e+00 2.0000e+00 2.0000e+00 2.0000e+00 2.0000e+00
 2.0000e+00 2.0000e+00 2.0000e+00 2.0000e+00 2.0000e+00 2.0000e+00
 2.0000e+00 2.0000e+00 2.0000e+00 2.0000e+00 2.0000e+00 2.0000e+00
 2.0000e+00 2.0000e+00 2.0000e+00 2.0000e+00 2.0000e+00 2.0000e+00
 2.0000e+00 2.0000e+00 2.0000e+00 2.0000e+00 2.0000e+00 2.0000e+00
 2.0000e+00 2.0000e+00 2.0000e+00 2.0000e+00 2.0000e+00 2.0000e+00
 2.0000e+00 2.0000e+00 2.0000e+00 2.0000e+00 2.0000e+00 2.0000e+00
 2.0000e+00 2.0000e+00 2.0000e+00 2.0000e+00 2.0000e+00 2.0000e+00
 2.0000e+00 2.0000e+00 2.0000e+00 2.0000e+00 2.0000e+00 2.0000e+00
 2.0000e+00 2.0000e+00 2.0000e+00 1.9992e+00 7.9457e-04]
entropy correction =  -7.052635553928692e-05
cycle= 10 E= -1232.00491331827  delta_E= 0.106  |g|= 2.12  |ddm|= 3.23
HOMO:  -0.3979703647271532 LUMO:  -0.34043098260806776
Fermi energy:      -0.3691994245
[2.     2.     2.     2.     2.     2.     2.     2.     2.     2.
 2.     2.     2.     2.     2.     2.     2.     2.     2.     2.
 2.     2.     2.     2.     2.     2.     2.     2.     2.     2.
 2.     2.     2.     2.     2.     2.     2.     2.     2.     2.
 2.     2.     2.     2.     2.     2.     2.     2.     2.     2.
 2.     2.     2.     2.     2.     2.     2.     2.     2.     2.
 2.     2.     2.     2.     2.     2.     2.     2.     2.     2.
 2.     2.     2.     2.     2.     2.     2.     2.     2.     2.
 2.     2.     2.     2.     2.     2.     2.     1.9937 0.0063]
entropy correction =  -0.00042721030961076435
cycle= 11 E= -1232.24004563143  delta_E= -0.235  |g|= 1.72  |ddm|= 3.08
HOMO:  -0.4042382365287265 LUMO:  -0.3789691587799404
Fermi energy:      -0.3916036919
[2.    2.    2.    2.    2.    2.    2.    2.    2.    2.    2.    2.
 2.    2.    2.    2.    2.    2.    2.    2.    2.    2.    2.    2.
 2.    2.    2.    2.    2.    2.    2.    2.    2.    2.    2.    2.
 2.    2.    2.    2.    2.    2.    2.    2.    2.    2.    2.    2.
 2.    2.    2.    2.    2.    2.    2.    2.    2.    2.    2.    2.
 2.    2.    2.    2.    2.    2.    2.    2.    2.    2.    2.    2.
 2.    2.    2.    2.    2.    2.    2.    2.    2.    2.    2.    2.
 2.    2.    2.    1.852 0.148]
entropy correction =  -0.005276983215897034
cycle= 12 E= -1232.78082228185  delta_E= -0.541  |g|= 0.644  |ddm|= 2.28
HOMO:  -0.4311852071544551 LUMO:  -0.3940121441847572
Fermi energy:      -0.4125986724
[2.     2.     2.     2.     2.     2.     2.     2.     2.     2.
 2.     2.     2.     2.     2.     2.     2.     2.     2.     2.
 2.     2.     2.     2.     2.     2.     2.     2.     2.     2.
 2.     2.     2.     2.     2.     2.     2.     2.     2.     2.
 2.     2.     2.     2.     2.     2.     2.     2.     2.     2.
 2.     2.     2.     2.     2.     2.     2.     2.     2.     2.
 2.     2.     2.     2.     2.     2.     2.     2.     2.     2.
 2.     2.     2.     2.     2.     2.     2.     2.     2.     2.
 2.     2.     2.     2.     2.     2.     2.     1.9526 0.0474]
entropy correction =  -0.002243886104937101
cycle= 13 E= -1232.87242301605  delta_E= -0.0916  |g|= 0.222  |ddm|= 0.889
HOMO:  -0.4382129817862021 LUMO:  -0.39549502634800826
Fermi energy:      -0.4168540037
[2.     2.     2.     2.     2.     2.     2.     2.     2.     2.
 2.     2.     2.     2.     2.     2.     2.     2.     2.     2.
 2.     2.     2.     2.     2.     2.     2.     2.     2.     2.
 2.     2.     2.     2.     2.     2.     2.     2.     2.     2.
 2.     2.     2.     2.     2.     2.     2.     2.     2.     2.
 2.     2.     2.     2.     2.     2.     2.     2.     2.     2.
 2.     2.     2.     2.     2.     2.     2.     2.     2.     2.
 2.     2.     2.     2.     2.     2.     2.     2.     2.     2.
 2.     2.     2.     2.     2.     2.     2.     1.9725 0.0275]
entropy correction =  -0.0014531945530100383
cycle= 14 E= -1232.88117964065  delta_E= -0.00876  |g|= 0.129  |ddm|= 0.22
HOMO:  -0.44259089239531696 LUMO:  -0.3962135986770907
Fermi energy:      -0.4194022450
[2.     2.     2.     2.     2.     2.     2.     2.     2.     2.
 2.     2.     2.     2.     2.     2.     2.     2.     2.     2.
 2.     2.     2.     2.     2.     2.     2.     2.     2.     2.
 2.     2.     2.     2.     2.     2.     2.     2.     2.     2.
 2.     2.     2.     2.     2.     2.     2.     2.     2.     2.
 2.     2.     2.     2.     2.     2.     2.     2.     2.     2.
 2.     2.     2.     2.     2.     2.     2.     2.     2.     2.
 2.     2.     2.     2.     2.     2.     2.     2.     2.     2.
 2.     2.     2.     2.     2.     2.     2.     1.9808 0.0192]
entropy correction =  -0.0010818867816397338
cycle= 15 E= -1232.88455897066  delta_E= -0.00338  |g|= 0.0461  |ddm|= 0.122
HOMO:  -0.4472458476616957 LUMO:  -0.39812766206348815
Fermi energy:      -0.4226867540
[2.     2.     2.     2.     2.     2.     2.     2.     2.     2.
 2.     2.     2.     2.     2.     2.     2.     2.     2.     2.
 2.     2.     2.     2.     2.     2.     2.     2.     2.     2.
 2.     2.     2.     2.     2.     2.     2.     2.     2.     2.
 2.     2.     2.     2.     2.     2.     2.     2.     2.     2.
 2.     2.     2.     2.     2.     2.     2.     2.     2.     2.
 2.     2.     2.     2.     2.     2.     2.     2.     2.     2.
 2.     2.     2.     2.     2.     2.     2.     2.     2.     2.
 2.     2.     2.     2.     2.     2.     2.     1.9854 0.0146]
entropy correction =  -0.0008642923070099998
cycle= 16 E= -1232.88482017321  delta_E= -0.000261  |g|= 0.0302  |ddm|= 0.0591
HOMO:  -0.44590242327139407 LUMO:  -0.39697437784909384
Fermi energy:      -0.4214384000
[2.     2.     2.     2.     2.     2.     2.     2.     2.     2.
 2.     2.     2.     2.     2.     2.     2.     2.     2.     2.
 2.     2.     2.     2.     2.     2.     2.     2.     2.     2.
 2.     2.     2.     2.     2.     2.     2.     2.     2.     2.
 2.     2.     2.     2.     2.     2.     2.     2.     2.     2.
 2.     2.     2.     2.     2.     2.     2.     2.     2.     2.
 2.     2.     2.     2.     2.     2.     2.     2.     2.     2.
 2.     2.     2.     2.     2.     2.     2.     2.     2.     2.
 2.     2.     2.     2.     2.     2.     2.     1.9851 0.0149]
entropy correction =  -0.0008779391543140078
cycle= 17 E= -1232.88499200925  delta_E= -0.000172  |g|= 0.00872  |ddm|= 0.0289
HOMO:  -0.4458678954936902 LUMO:  -0.39677986677395793
Fermi energy:      -0.4213238805
[2.     2.     2.     2.     2.     2.     2.     2.     2.     2.
 2.     2.     2.     2.     2.     2.     2.     2.     2.     2.
 2.     2.     2.     2.     2.     2.     2.     2.     2.     2.
 2.     2.     2.     2.     2.     2.     2.     2.     2.     2.
 2.     2.     2.     2.     2.     2.     2.     2.     2.     2.
 2.     2.     2.     2.     2.     2.     2.     2.     2.     2.
 2.     2.     2.     2.     2.     2.     2.     2.     2.     2.
 2.     2.     2.     2.     2.     2.     2.     2.     2.     2.
 2.     2.     2.     2.     2.     2.     2.     1.9853 0.0147]
entropy correction =  -0.0008664432376289676
cycle= 18 E= -1232.88499618514  delta_E= -4.18e-06  |g|= 0.00723  |ddm|= 0.0174
HOMO:  -0.44579467756641433 LUMO:  -0.39675948841814757
Fermi energy:      -0.4212770824
[2.     2.     2.     2.     2.     2.     2.     2.     2.     2.
 2.     2.     2.     2.     2.     2.     2.     2.     2.     2.
 2.     2.     2.     2.     2.     2.     2.     2.     2.     2.
 2.     2.     2.     2.     2.     2.     2.     2.     2.     2.
 2.     2.     2.     2.     2.     2.     2.     2.     2.     2.
 2.     2.     2.     2.     2.     2.     2.     2.     2.     2.
 2.     2.     2.     2.     2.     2.     2.     2.     2.     2.
 2.     2.     2.     2.     2.     2.     2.     2.     2.     2.
 2.     2.     2.     2.     2.     2.     2.     1.9853 0.0147]
entropy correction =  -0.0008702242502133373
cycle= 19 E= -1232.88501006577  delta_E= -1.39e-05  |g|= 0.000975  |ddm|= 0.00956
HOMO:  -0.4457868062862494 LUMO:  -0.3967399013009854
Fermi energy:      -0.4212633532
[2.     2.     2.     2.     2.     2.     2.     2.     2.     2.
 2.     2.     2.     2.     2.     2.     2.     2.     2.     2.
 2.     2.     2.     2.     2.     2.     2.     2.     2.     2.
 2.     2.     2.     2.     2.     2.     2.     2.     2.     2.
 2.     2.     2.     2.     2.     2.     2.     2.     2.     2.
 2.     2.     2.     2.     2.     2.     2.     2.     2.     2.
 2.     2.     2.     2.     2.     2.     2.     2.     2.     2.
 2.     2.     2.     2.     2.     2.     2.     2.     2.     2.
 2.     2.     2.     2.     2.     2.     2.     1.9853 0.0147]
entropy correction =  -0.0008693845588340112
cycle= 20 E= -1232.88501031811  delta_E= -2.52e-07  |g|= 0.000529  |ddm|= 0.00121
HOMO:  -0.44582484042414405 LUMO:  -0.3967675430811507
Fermi energy:      -0.4212961911
[2.     2.     2.     2.     2.     2.     2.     2.     2.     2.
 2.     2.     2.     2.     2.     2.     2.     2.     2.     2.
 2.     2.     2.     2.     2.     2.     2.     2.     2.     2.
 2.     2.     2.     2.     2.     2.     2.     2.     2.     2.
 2.     2.     2.     2.     2.     2.     2.     2.     2.     2.
 2.     2.     2.     2.     2.     2.     2.     2.     2.     2.
 2.     2.     2.     2.     2.     2.     2.     2.     2.     2.
 2.     2.     2.     2.     2.     2.     2.     2.     2.     2.
 2.     2.     2.     2.     2.     2.     2.     1.9853 0.0147]
entropy correction =  -0.0008686403662624077
cycle= 21 E= -1232.88501034015  delta_E= -2.2e-08  |g|= 0.000617  |ddm|= 0.00111
HOMO:  -0.44581415638595506 LUMO:  -0.3967475954551864
Fermi energy:      -0.4212808753
[2.     2.     2.     2.     2.     2.     2.     2.     2.     2.
 2.     2.     2.     2.     2.     2.     2.     2.     2.     2.
 2.     2.     2.     2.     2.     2.     2.     2.     2.     2.
 2.     2.     2.     2.     2.     2.     2.     2.     2.     2.
 2.     2.     2.     2.     2.     2.     2.     2.     2.     2.
 2.     2.     2.     2.     2.     2.     2.     2.     2.     2.
 2.     2.     2.     2.     2.     2.     2.     2.     2.     2.
 2.     2.     2.     2.     2.     2.     2.     2.     2.     2.
 2.     2.     2.     2.     2.     2.     2.     1.9853 0.0147]
entropy correction =  -0.000867977513732899
cycle= 22 E= -1232.88501044009  delta_E= -9.99e-08  |g|= 0.00024  |ddm|= 0.000968
HOMO:  -0.44582402265700893 LUMO:  -0.39675746877645013
Fermi energy:      -0.4212907451
[2.     2.     2.     2.     2.     2.     2.     2.     2.     2.
 2.     2.     2.     2.     2.     2.     2.     2.     2.     2.
 2.     2.     2.     2.     2.     2.     2.     2.     2.     2.
 2.     2.     2.     2.     2.     2.     2.     2.     2.     2.
 2.     2.     2.     2.     2.     2.     2.     2.     2.     2.
 2.     2.     2.     2.     2.     2.     2.     2.     2.     2.
 2.     2.     2.     2.     2.     2.     2.     2.     2.     2.
 2.     2.     2.     2.     2.     2.     2.     2.     2.     2.
 2.     2.     2.     2.     2.     2.     2.     1.9853 0.0147]
entropy correction =  -0.0008679780180255728
cycle= 23 E= -1232.88501046766  delta_E= -2.76e-08  |g|= 8.41e-05  |ddm|= 0.000612
HOMO:  -0.4458262901784542 LUMO:  -0.3967587994240996
Fermi energy:      -0.4212925442
[2.     2.     2.     2.     2.     2.     2.     2.     2.     2.
 2.     2.     2.     2.     2.     2.     2.     2.     2.     2.
 2.     2.     2.     2.     2.     2.     2.     2.     2.     2.
 2.     2.     2.     2.     2.     2.     2.     2.     2.     2.
 2.     2.     2.     2.     2.     2.     2.     2.     2.     2.
 2.     2.     2.     2.     2.     2.     2.     2.     2.     2.
 2.     2.     2.     2.     2.     2.     2.     2.     2.     2.
 2.     2.     2.     2.     2.     2.     2.     2.     2.     2.
 2.     2.     2.     2.     2.     2.     2.     1.9853 0.0147]
entropy correction =  -0.000867911007053517
cycle= 24 E= -1232.88501046925  delta_E= -1.59e-09  |g|= 9.08e-05  |ddm|= 0.000253
HOMO:  -0.44582102660219286 LUMO:  -0.3967525001157794
Fermi energy:      -0.4212867627
[2.     2.     2.     2.     2.     2.     2.     2.     2.     2.
 2.     2.     2.     2.     2.     2.     2.     2.     2.     2.
 2.     2.     2.     2.     2.     2.     2.     2.     2.     2.
 2.     2.     2.     2.     2.     2.     2.     2.     2.     2.
 2.     2.     2.     2.     2.     2.     2.     2.     2.     2.
 2.     2.     2.     2.     2.     2.     2.     2.     2.     2.
 2.     2.     2.     2.     2.     2.     2.     2.     2.     2.
 2.     2.     2.     2.     2.     2.     2.     2.     2.     2.
 2.     2.     2.     2.     2.     2.     2.     1.9853 0.0147]
entropy correction =  -0.0008678369308409821
cycle= 25 E= -1232.88501047006  delta_E= -8.15e-10  |g|= 7.03e-05  |ddm|= 0.000151
HOMO:  -0.44582369503820785 LUMO:  -0.39675559667800775
Fermi energy:      -0.4212896452
[2.     2.     2.     2.     2.     2.     2.     2.     2.     2.
 2.     2.     2.     2.     2.     2.     2.     2.     2.     2.
 2.     2.     2.     2.     2.     2.     2.     2.     2.     2.
 2.     2.     2.     2.     2.     2.     2.     2.     2.     2.
 2.     2.     2.     2.     2.     2.     2.     2.     2.     2.
 2.     2.     2.     2.     2.     2.     2.     2.     2.     2.
 2.     2.     2.     2.     2.     2.     2.     2.     2.     2.
 2.     2.     2.     2.     2.     2.     2.     2.     2.     2.
 2.     2.     2.     2.     2.     2.     2.     1.9853 0.0147]
entropy correction =  -0.0008678675499717945
cycle= 26 E= -1232.88501047104  delta_E= -9.73e-10  |g|= 2.07e-05  |ddm|= 7.47e-05
HOMO:  -0.44582231224548147 LUMO:  -0.39675444253009173
Fermi energy:      -0.4212883768
[2.     2.     2.     2.     2.     2.     2.     2.     2.     2.
 2.     2.     2.     2.     2.     2.     2.     2.     2.     2.
 2.     2.     2.     2.     2.     2.     2.     2.     2.     2.
 2.     2.     2.     2.     2.     2.     2.     2.     2.     2.
 2.     2.     2.     2.     2.     2.     2.     2.     2.     2.
 2.     2.     2.     2.     2.     2.     2.     2.     2.     2.
 2.     2.     2.     2.     2.     2.     2.     2.     2.     2.
 2.     2.     2.     2.     2.     2.     2.     2.     2.     2.
 2.     2.     2.     2.     2.     2.     2.     1.9853 0.0147]
entropy correction =  -0.0008678839028247843
Extra cycle  E= -1232.8850104708  delta_E= 2.38e-10  |g|= 4.72e-05  |ddm|= 6.48e-05
converged SCF energy = -1232.8850104708
PATFIA.py:11: DeprecationWarning: time.clock has been deprecated in Python 3.3 and will be removed from Python 3.8: use time.perf_counter or time.process_time instead
  t0 = (time.clock(), time.time())
<class 'pydmfet.qcwrap.pyscf_rks_ao.rks_ao'> does not have attributes  ne_frozen add_coredm_ext_energy coredm vext_1e dm_guess
