#INFO: **** input file is /tigress/xingz/pydmfet/examples/proj/Cu/Cu.py ****
from pydmfet import proj_ao
from pydmfet.qcwrap.pyscf_rks_ao import rks_ao
from pyscf import gto,scf
import numpy as np
from pyscf.tools import molden
from pyscf import lo
from pyscf.lo import iao,orth
from functools import reduce
import math

bas ='lanl2dz'
ecp = 'lanl2dz'
temp = 0.005

mol = gto.Mole()
mol.atom = open('Cu.xyz').read()
mol.basis = bas
mol.ecp = ecp
mol.charge = 0
mol.build(max_memory = 4000, verbose=4)

_, mo_energy, mo_coeff, mo_occ, irrep_labels, spins = molden.load("Cu_mo.molden")

#mf = scf.RKS(mol)
mf = rks_ao(mol,smear_sigma = temp)
mf.xc = "pbe,pbe"
mf.max_cycle = 100
#mf.init_guess = "hcore"

mf.mo_energy = mo_energy
mf.mo_occ = mo_occ
mf.mo_coeff = mo_coeff

DMguess = mf.make_rdm1()
#DMguess = None
mf.scf(dm0=DMguess)

with open( 'Cu_mo.molden', 'w' ) as thefile:
    molden.header(mol, thefile)
    molden.orbital_coeff(mol, thefile, mf.mo_coeff,ene=mf.mo_energy,occ=mf.mo_occ)

exit()
natoms = mol.natm
impAtom = np.zeros([natoms], dtype=int)
impAtom[11-1] = 1
impAtom[18-1] = 1
impAtom[20-1] = 1


embed = proj_ao.proj_embed(mf,impAtom, Ne_env = 176)
embed.pop_method = 'meta_lowdin'
embed.pm_exponent = 2
embed.make_frozen_orbs(norb = 97)

embed.embedding_potential()
#INFO: ******************** input file end ********************


System: uname_result(system='Linux', node='tigercpu.princeton.edu', release='3.10.0-957.21.2.el7.x86_64', version='#1 SMP Tue Jun 4 15:19:05 EDT 2019', machine='x86_64', processor='x86_64')  Threads 40
Python 3.7.0 (default, Jun 28 2018, 13:15:42) 
[GCC 7.2.0]
numpy 1.16.4  scipy 1.4.0.dev0+0f78e0f
Date: Fri Jul  5 21:02:16 2019
PySCF version 1.5
PySCF path  /home/xingz/.local/lib/python3.7/site-packages/pyscf

[CONFIG] conf_file None
[INPUT] verbose = 4
[INPUT] num. atoms = 16
[INPUT] num. electrons = 304
[INPUT] charge = 0
[INPUT] spin (= nelec alpha-beta = 2S) = 0
[INPUT] symmetry False subgroup None
[INPUT] Mole.unit = angstrom
[INPUT]  1 Cu    -1.101350000000  -0.635870000000   3.115080000000 AA   -2.081249867290  -1.201620150827   5.886648056110 Bohr
[INPUT]  2 Cu     1.101350000000   0.635870000000   3.115080000000 AA    2.081249867290   1.201620150827   5.886648056110 Bohr
[INPUT]  3 Cu     1.101350000000  -1.907600000000   3.115100000000 AA    2.081249867290  -3.604841555220   5.886685850633 Bohr
[INPUT]  4 Cu    -1.101350000000   1.907600000000   3.115100000000 AA   -2.081249867290   3.604841555220   5.886685850633 Bohr
[INPUT]  5 Cu    -3.304060000000  -1.907600000000   3.115100000000 AA   -6.243768499130  -3.604841555220   5.886685850633 Bohr
[INPUT]  6 Cu     3.304050000000   1.907600000000   3.115100000000 AA    6.243749601869   3.604841555220   5.886685850633 Bohr
[INPUT]  7 Cu    -2.569820000000  -0.635870000000   1.038380000000 AA   -4.856255989430  -1.201620150827   1.962253813226 Bohr
[INPUT]  8 Cu    -0.367120000000  -1.907600000000   1.038350000000 AA   -0.693756254850  -3.604841555220   1.962197121442 Bohr
[INPUT]  9 Cu    -0.367120000000   0.635870000000   1.038380000000 AA   -0.693756254850   1.201620150827   1.962253813226 Bohr
[INPUT] 10 Cu     1.835590000000  -0.635870000000   1.038380000000 AA    3.468762376990  -1.201620150827   1.962253813226 Bohr
[INPUT] 11 Cu     1.835590000000   1.907600000000   1.038350000000 AA    3.468762376990   3.604841555220   1.962197121442 Bohr
[INPUT] 12 Cu    -1.835590000000  -1.907600000000  -1.038360000000 AA   -3.468762376990  -3.604841555220  -1.962216018703 Bohr
[INPUT] 13 Cu    -1.835590000000   0.635870000000  -1.038370000000 AA   -3.468762376990   1.201620150827  -1.962234915965 Bohr
[INPUT] 14 Cu     0.367120000000  -0.635870000000  -1.038360000000 AA    0.693756254850  -1.201620150827  -1.962216018703 Bohr
[INPUT] 15 Cu     0.367120000000   1.907600000000  -1.038360000000 AA    0.693756254850   3.604841555220  -1.962216018703 Bohr
[INPUT] 16 Cu     2.569820000000   0.635870000000  -1.038370000000 AA    4.856255989430   1.201620150827  -1.962234915965 Bohr

nuclear repulsion = 6399.20409394978
number of shells = 112
number of NR pGTOs = 720
number of NR cGTOs = 352
basis = lanl2dz
ecp = lanl2dz
CPU time:         3.85
rks_ao.ne_frozen =  0


******** <class 'pydmfet.qcwrap.pyscf_rks_ao.rks_ao'> flags ********
method = rks_ao-RKS-RHF
initial guess = minao
damping factor = 0
level shift factor = 0
DIIS = <class 'pyscf.scf.diis.CDIIS'>
DIIS start cycle = 1
DIIS space = 8
SCF tol = 1e-09
SCF gradient tol = None
max. SCF cycles = 100
direct_scf = False
chkfile to save SCF result = /tigress/xingz/pydmfet/examples/proj/Cu/tmptm749gso
max_memory 4000 MB (current use 81 MB)
XC functionals = pbe,pbe
small_rho_cutoff = 1e-07
radial grids: 
    Treutler-Ahlrichs (JCP 102, 346 (M4)) radial grids
    
becke partition: Becke, JCP, 88, 2547 (1988)
pruning grids: <function nwchem_prune at 0x2b79014639d8>
grids dens level: 3
symmetrized grids: False
atomic radii adjust function: <function treutler_atomic_radii_adjust at 0x2b7901463950>
Set gradient conv threshold to 3.16228e-05
tot grids = 326784
entropy correction =  -0.004767957570529057
init E= -3138.83857767372
HOMO:  -0.13213303068574192 LUMO:  -0.1291756982409292
Fermi energy:      -0.1316936677
[2.     2.     2.     2.     2.     2.     2.     2.     2.     2.
 2.     2.     2.     2.     2.     2.     2.     2.     2.     2.
 2.     2.     2.     2.     2.     2.     2.     2.     2.     2.
 2.     2.     2.     2.     2.     2.     2.     2.     2.     2.
 2.     2.     2.     2.     2.     2.     2.     2.     2.     2.
 2.     2.     2.     2.     2.     2.     2.     2.     2.     2.
 2.     2.     2.     2.     2.     2.     2.     2.     2.     2.
 2.     2.     2.     2.     2.     2.     2.     2.     2.     2.
 2.     2.     2.     2.     2.     2.     2.     2.     2.     2.
 2.     2.     2.     2.     2.     2.     2.     2.     2.     2.
 2.     2.     2.     2.     2.     2.     2.     2.     2.     2.
 2.     2.     2.     2.     2.     2.     2.     2.     2.     2.
 2.     2.     2.     2.     2.     2.     1.9999 1.9999 1.9999 1.9999
 1.9999 1.9999 1.9999 1.9999 1.9999 1.9998 1.9998 1.9998 1.9998 1.9998
 1.9998 1.9997 1.9995 1.9995 1.9994 1.9993 1.9991 1.9988 1.9984 1.9983
 1.8602 1.0439 0.7534 0.2969 0.0421 0.0138]
entropy correction =  -0.022191515559736544
cycle= 1 E= -3138.69551538298  delta_E= 0.143  |g|= 0.979  |ddm|= 28.1
HOMO:  -0.20606778951121305 LUMO:  -0.16934721895070767
Fermi energy:      -0.1884718485
[2.0000e+00 2.0000e+00 2.0000e+00 2.0000e+00 2.0000e+00 2.0000e+00
 2.0000e+00 2.0000e+00 2.0000e+00 2.0000e+00 2.0000e+00 2.0000e+00
 2.0000e+00 2.0000e+00 2.0000e+00 2.0000e+00 2.0000e+00 2.0000e+00
 2.0000e+00 2.0000e+00 2.0000e+00 2.0000e+00 2.0000e+00 2.0000e+00
 2.0000e+00 2.0000e+00 2.0000e+00 2.0000e+00 2.0000e+00 2.0000e+00
 2.0000e+00 2.0000e+00 2.0000e+00 2.0000e+00 2.0000e+00 2.0000e+00
 2.0000e+00 2.0000e+00 2.0000e+00 2.0000e+00 2.0000e+00 2.0000e+00
 2.0000e+00 2.0000e+00 2.0000e+00 2.0000e+00 2.0000e+00 2.0000e+00
 2.0000e+00 2.0000e+00 2.0000e+00 2.0000e+00 2.0000e+00 2.0000e+00
 2.0000e+00 2.0000e+00 2.0000e+00 2.0000e+00 2.0000e+00 2.0000e+00
 2.0000e+00 2.0000e+00 2.0000e+00 2.0000e+00 2.0000e+00 2.0000e+00
 2.0000e+00 2.0000e+00 2.0000e+00 2.0000e+00 2.0000e+00 2.0000e+00
 2.0000e+00 2.0000e+00 2.0000e+00 2.0000e+00 2.0000e+00 2.0000e+00
 2.0000e+00 2.0000e+00 2.0000e+00 2.0000e+00 2.0000e+00 2.0000e+00
 2.0000e+00 2.0000e+00 2.0000e+00 2.0000e+00 2.0000e+00 2.0000e+00
 2.0000e+00 2.0000e+00 2.0000e+00 2.0000e+00 2.0000e+00 2.0000e+00
 2.0000e+00 2.0000e+00 2.0000e+00 2.0000e+00 2.0000e+00 2.0000e+00
 2.0000e+00 2.0000e+00 2.0000e+00 2.0000e+00 2.0000e+00 2.0000e+00
 2.0000e+00 2.0000e+00 2.0000e+00 2.0000e+00 2.0000e+00 2.0000e+00
 2.0000e+00 2.0000e+00 2.0000e+00 2.0000e+00 2.0000e+00 2.0000e+00
 2.0000e+00 2.0000e+00 2.0000e+00 2.0000e+00 2.0000e+00 2.0000e+00
 2.0000e+00 2.0000e+00 2.0000e+00 2.0000e+00 2.0000e+00 2.0000e+00
 2.0000e+00 2.0000e+00 2.0000e+00 2.0000e+00 2.0000e+00 2.0000e+00
 2.0000e+00 2.0000e+00 2.0000e+00 2.0000e+00 2.0000e+00 2.0000e+00
 2.0000e+00 2.0000e+00 2.0000e+00 2.0000e+00 1.9999e+00 1.9993e+00
 1.9906e+00 1.9425e+00 4.2708e-02 1.5819e-02 7.1418e-03 1.9809e-03]
entropy correction =  -0.0034460668820298916
cycle= 2 E= -3137.32301595965  delta_E= 1.37  |g|=  2.8  |ddm|= 36.3
HOMO:  -0.14409805691731378 LUMO:  -0.1320265458037782
Fermi energy:      -0.1396615100
[2.     2.     2.     2.     2.     2.     2.     2.     2.     2.
 2.     2.     2.     2.     2.     2.     2.     2.     2.     2.
 2.     2.     2.     2.     2.     2.     2.     2.     2.     2.
 2.     2.     2.     2.     2.     2.     2.     2.     2.     2.
 2.     2.     2.     2.     2.     2.     2.     2.     2.     2.
 2.     2.     2.     2.     2.     2.     2.     2.     2.     2.
 2.     2.     2.     2.     2.     2.     2.     2.     2.     2.
 2.     2.     2.     2.     2.     2.     2.     2.     2.     2.
 2.     2.     2.     2.     2.     2.     2.     2.     2.     2.
 2.     2.     2.     2.     2.     2.     2.     2.     2.     2.
 2.     2.     2.     2.     2.     2.     2.     2.     2.     2.
 2.     2.     2.     2.     2.     2.     2.     2.     2.     2.
 2.     2.     2.     2.     2.     2.     2.     2.     2.     2.
 2.     2.     2.     2.     2.     2.     2.     2.     2.     2.
 2.     2.     2.     2.     2.     2.     2.     2.     1.9997 1.9996
 1.9209 1.4167 0.3569 0.2698 0.0308 0.0057]
entropy correction =  -0.017388992489537864
cycle= 3 E= -3138.82937000075  delta_E= -1.51  |g|= 0.433  |ddm|= 17.6
HOMO:  -0.14756668060246883 LUMO:  -0.13716772955663495
Fermi energy:      -0.1432262313
[2.     2.     2.     2.     2.     2.     2.     2.     2.     2.
 2.     2.     2.     2.     2.     2.     2.     2.     2.     2.
 2.     2.     2.     2.     2.     2.     2.     2.     2.     2.
 2.     2.     2.     2.     2.     2.     2.     2.     2.     2.
 2.     2.     2.     2.     2.     2.     2.     2.     2.     2.
 2.     2.     2.     2.     2.     2.     2.     2.     2.     2.
 2.     2.     2.     2.     2.     2.     2.     2.     2.     2.
 2.     2.     2.     2.     2.     2.     2.     2.     2.     2.
 2.     2.     2.     2.     2.     2.     2.     2.     2.     2.
 2.     2.     2.     2.     2.     2.     2.     2.     2.     2.
 2.     2.     2.     2.     2.     2.     2.     2.     2.     2.
 2.     2.     2.     2.     2.     2.     2.     2.     2.     2.
 2.     2.     2.     2.     2.     2.     2.     2.     2.     2.
 2.     2.     2.     2.     2.     2.     2.     2.     2.     2.
 2.     2.     2.     1.9999 1.9999 1.9999 1.9999 1.9999 1.9998 1.9995
 1.9286 1.4087 0.4588 0.1682 0.0264 0.0106]
entropy correction =  -0.016997671409492897
cycle= 4 E= -3138.85803405668  delta_E= -0.0287  |g|= 0.304  |ddm|= 9.47
HOMO:  -0.1472522430877717 LUMO:  -0.13937269499237323
Fermi energy:      -0.1442783015
[2.     2.     2.     2.     2.     2.     2.     2.     2.     2.
 2.     2.     2.     2.     2.     2.     2.     2.     2.     2.
 2.     2.     2.     2.     2.     2.     2.     2.     2.     2.
 2.     2.     2.     2.     2.     2.     2.     2.     2.     2.
 2.     2.     2.     2.     2.     2.     2.     2.     2.     2.
 2.     2.     2.     2.     2.     2.     2.     2.     2.     2.
 2.     2.     2.     2.     2.     2.     2.     2.     2.     2.
 2.     2.     2.     2.     2.     2.     2.     2.     2.     2.
 2.     2.     2.     2.     2.     2.     2.     2.     2.     2.
 2.     2.     2.     2.     2.     2.     2.     2.     2.     2.
 2.     2.     2.     2.     2.     2.     2.     2.     2.     2.
 2.     2.     2.     2.     2.     2.     2.     2.     2.     2.
 2.     2.     2.     2.     2.     2.     2.     2.     2.     2.
 2.     2.     2.     2.     2.     2.     2.     2.     2.     2.
 2.     2.     2.     2.     2.     2.     2.     1.9999 1.9997 1.9995
 1.9193 1.2889 0.5453 0.2159 0.0243 0.0073]
entropy correction =  -0.018441379745780598
cycle= 5 E= -3138.86821715424  delta_E= -0.0102  |g|= 0.197  |ddm|=  2.6
HOMO:  -0.14583976932404527 LUMO:  -0.13683475633706624
Fermi energy:      -0.1423819427
[2.     2.     2.     2.     2.     2.     2.     2.     2.     2.
 2.     2.     2.     2.     2.     2.     2.     2.     2.     2.
 2.     2.     2.     2.     2.     2.     2.     2.     2.     2.
 2.     2.     2.     2.     2.     2.     2.     2.     2.     2.
 2.     2.     2.     2.     2.     2.     2.     2.     2.     2.
 2.     2.     2.     2.     2.     2.     2.     2.     2.     2.
 2.     2.     2.     2.     2.     2.     2.     2.     2.     2.
 2.     2.     2.     2.     2.     2.     2.     2.     2.     2.
 2.     2.     2.     2.     2.     2.     2.     2.     2.     2.
 2.     2.     2.     2.     2.     2.     2.     2.     2.     2.
 2.     2.     2.     2.     2.     2.     2.     2.     2.     2.
 2.     2.     2.     2.     2.     2.     2.     2.     2.     2.
 2.     2.     2.     2.     2.     2.     2.     2.     2.     2.
 2.     2.     2.     2.     2.     2.     2.     2.     2.     2.
 2.     2.     2.     2.     2.     2.     2.     2.     1.9998 1.9997
 1.9186 1.3326 0.496  0.2108 0.0337 0.009 ]
entropy correction =  -0.01822389844532776
cycle= 6 E= -3138.87348908453  delta_E= -0.00527  |g|= 0.112  |ddm|= 1.38
HOMO:  -0.14614067780040613 LUMO:  -0.1366864146684288
Fermi energy:      -0.1424248089
[2.     2.     2.     2.     2.     2.     2.     2.     2.     2.
 2.     2.     2.     2.     2.     2.     2.     2.     2.     2.
 2.     2.     2.     2.     2.     2.     2.     2.     2.     2.
 2.     2.     2.     2.     2.     2.     2.     2.     2.     2.
 2.     2.     2.     2.     2.     2.     2.     2.     2.     2.
 2.     2.     2.     2.     2.     2.     2.     2.     2.     2.
 2.     2.     2.     2.     2.     2.     2.     2.     2.     2.
 2.     2.     2.     2.     2.     2.     2.     2.     2.     2.
 2.     2.     2.     2.     2.     2.     2.     2.     2.     2.
 2.     2.     2.     2.     2.     2.     2.     2.     2.     2.
 2.     2.     2.     2.     2.     2.     2.     2.     2.     2.
 2.     2.     2.     2.     2.     2.     2.     2.     2.     2.
 2.     2.     2.     2.     2.     2.     2.     2.     2.     2.
 2.     2.     2.     2.     2.     2.     2.     2.     2.     2.
 2.     2.     2.     2.     2.     2.     2.     1.9999 1.9998 1.9996
 1.9203 1.3554 0.4818 0.2083 0.0276 0.0075]
entropy correction =  -0.0178476055896658
cycle= 7 E= -3138.87622918098  delta_E= -0.00274  |g|= 0.0314  |ddm|= 0.983
HOMO:  -0.14620235455386693 LUMO:  -0.13658353347973395
Fermi energy:      -0.1423889797
[2.     2.     2.     2.     2.     2.     2.     2.     2.     2.
 2.     2.     2.     2.     2.     2.     2.     2.     2.     2.
 2.     2.     2.     2.     2.     2.     2.     2.     2.     2.
 2.     2.     2.     2.     2.     2.     2.     2.     2.     2.
 2.     2.     2.     2.     2.     2.     2.     2.     2.     2.
 2.     2.     2.     2.     2.     2.     2.     2.     2.     2.
 2.     2.     2.     2.     2.     2.     2.     2.     2.     2.
 2.     2.     2.     2.     2.     2.     2.     2.     2.     2.
 2.     2.     2.     2.     2.     2.     2.     2.     2.     2.
 2.     2.     2.     2.     2.     2.     2.     2.     2.     2.
 2.     2.     2.     2.     2.     2.     2.     2.     2.     2.
 2.     2.     2.     2.     2.     2.     2.     2.     2.     2.
 2.     2.     2.     2.     2.     2.     2.     2.     2.     2.
 2.     2.     2.     2.     2.     2.     2.     2.     2.     2.
 2.     2.     2.     2.     2.     2.     2.     1.9999 1.9998 1.9996
 1.922  1.3639 0.4769 0.2027 0.0273 0.0081]
entropy correction =  -0.017713222626877724
cycle= 8 E= -3138.87638780607  delta_E= -0.000159  |g|= 0.0208  |ddm|= 0.295
HOMO:  -0.14641259619664038 LUMO:  -0.13680859426460523
Fermi energy:      -0.1425997790
[2.     2.     2.     2.     2.     2.     2.     2.     2.     2.
 2.     2.     2.     2.     2.     2.     2.     2.     2.     2.
 2.     2.     2.     2.     2.     2.     2.     2.     2.     2.
 2.     2.     2.     2.     2.     2.     2.     2.     2.     2.
 2.     2.     2.     2.     2.     2.     2.     2.     2.     2.
 2.     2.     2.     2.     2.     2.     2.     2.     2.     2.
 2.     2.     2.     2.     2.     2.     2.     2.     2.     2.
 2.     2.     2.     2.     2.     2.     2.     2.     2.     2.
 2.     2.     2.     2.     2.     2.     2.     2.     2.     2.
 2.     2.     2.     2.     2.     2.     2.     2.     2.     2.
 2.     2.     2.     2.     2.     2.     2.     2.     2.     2.
 2.     2.     2.     2.     2.     2.     2.     2.     2.     2.
 2.     2.     2.     2.     2.     2.     2.     2.     2.     2.
 2.     2.     2.     2.     2.     2.     2.     2.     2.     2.
 2.     2.     2.     2.     2.     2.     2.     1.9999 1.9998 1.9996
 1.9228 1.3638 0.478  0.2008 0.0271 0.0083]
entropy correction =  -0.01768387277348971
cycle= 9 E= -3138.87646495368  delta_E= -7.71e-05  |g|= 0.00578  |ddm|= 0.126
HOMO:  -0.14646014216175726 LUMO:  -0.13682205622055604
Fermi energy:      -0.1426457697
[2.     2.     2.     2.     2.     2.     2.     2.     2.     2.
 2.     2.     2.     2.     2.     2.     2.     2.     2.     2.
 2.     2.     2.     2.     2.     2.     2.     2.     2.     2.
 2.     2.     2.     2.     2.     2.     2.     2.     2.     2.
 2.     2.     2.     2.     2.     2.     2.     2.     2.     2.
 2.     2.     2.     2.     2.     2.     2.     2.     2.     2.
 2.     2.     2.     2.     2.     2.     2.     2.     2.     2.
 2.     2.     2.     2.     2.     2.     2.     2.     2.     2.
 2.     2.     2.     2.     2.     2.     2.     2.     2.     2.
 2.     2.     2.     2.     2.     2.     2.     2.     2.     2.
 2.     2.     2.     2.     2.     2.     2.     2.     2.     2.
 2.     2.     2.     2.     2.     2.     2.     2.     2.     2.
 2.     2.     2.     2.     2.     2.     2.     2.     2.     2.
 2.     2.     2.     2.     2.     2.     2.     2.     2.     2.
 2.     2.     2.     2.     2.     2.     2.     2.     1.9998 1.9996
 1.9231 1.364  0.4756 0.2025 0.0276 0.0081]
entropy correction =  -0.01768883868256075
cycle= 10 E= -3138.87646350834  delta_E= 1.45e-06  |g|= 0.00742  |ddm|= 0.0736
HOMO:  -0.1464912869959565 LUMO:  -0.13684979199324523
Fermi energy:      -0.1426738331
[2.     2.     2.     2.     2.     2.     2.     2.     2.     2.
 2.     2.     2.     2.     2.     2.     2.     2.     2.     2.
 2.     2.     2.     2.     2.     2.     2.     2.     2.     2.
 2.     2.     2.     2.     2.     2.     2.     2.     2.     2.
 2.     2.     2.     2.     2.     2.     2.     2.     2.     2.
 2.     2.     2.     2.     2.     2.     2.     2.     2.     2.
 2.     2.     2.     2.     2.     2.     2.     2.     2.     2.
 2.     2.     2.     2.     2.     2.     2.     2.     2.     2.
 2.     2.     2.     2.     2.     2.     2.     2.     2.     2.
 2.     2.     2.     2.     2.     2.     2.     2.     2.     2.
 2.     2.     2.     2.     2.     2.     2.     2.     2.     2.
 2.     2.     2.     2.     2.     2.     2.     2.     2.     2.
 2.     2.     2.     2.     2.     2.     2.     2.     2.     2.
 2.     2.     2.     2.     2.     2.     2.     2.     2.     2.
 2.     2.     2.     2.     2.     2.     2.     1.9999 1.9998 1.9996
 1.9227 1.3642 0.4756 0.2029 0.0274 0.008 ]
entropy correction =  -0.017693429683467796
cycle= 11 E= -3138.87647280814  delta_E= -9.3e-06  |g|= 0.00238  |ddm|= 0.0413
HOMO:  -0.1464642640779894 LUMO:  -0.13682647210985577
Fermi energy:      -0.1426450906
[2.     2.     2.     2.     2.     2.     2.     2.     2.     2.
 2.     2.     2.     2.     2.     2.     2.     2.     2.     2.
 2.     2.     2.     2.     2.     2.     2.     2.     2.     2.
 2.     2.     2.     2.     2.     2.     2.     2.     2.     2.
 2.     2.     2.     2.     2.     2.     2.     2.     2.     2.
 2.     2.     2.     2.     2.     2.     2.     2.     2.     2.
 2.     2.     2.     2.     2.     2.     2.     2.     2.     2.
 2.     2.     2.     2.     2.     2.     2.     2.     2.     2.
 2.     2.     2.     2.     2.     2.     2.     2.     2.     2.
 2.     2.     2.     2.     2.     2.     2.     2.     2.     2.
 2.     2.     2.     2.     2.     2.     2.     2.     2.     2.
 2.     2.     2.     2.     2.     2.     2.     2.     2.     2.
 2.     2.     2.     2.     2.     2.     2.     2.     2.     2.
 2.     2.     2.     2.     2.     2.     2.     2.     2.     2.
 2.     2.     2.     2.     2.     2.     2.     1.9999 1.9998 1.9996
 1.9226 1.3644 0.476  0.2024 0.0274 0.0081]
entropy correction =  -0.017691539474544552
cycle= 12 E= -3138.87647137002  delta_E= 1.44e-06  |g|= 0.00319  |ddm|= 0.0193
HOMO:  -0.1464470706003161 LUMO:  -0.13682625572345736
Fermi energy:      -0.1426351183
[2.     2.     2.     2.     2.     2.     2.     2.     2.     2.
 2.     2.     2.     2.     2.     2.     2.     2.     2.     2.
 2.     2.     2.     2.     2.     2.     2.     2.     2.     2.
 2.     2.     2.     2.     2.     2.     2.     2.     2.     2.
 2.     2.     2.     2.     2.     2.     2.     2.     2.     2.
 2.     2.     2.     2.     2.     2.     2.     2.     2.     2.
 2.     2.     2.     2.     2.     2.     2.     2.     2.     2.
 2.     2.     2.     2.     2.     2.     2.     2.     2.     2.
 2.     2.     2.     2.     2.     2.     2.     2.     2.     2.
 2.     2.     2.     2.     2.     2.     2.     2.     2.     2.
 2.     2.     2.     2.     2.     2.     2.     2.     2.     2.
 2.     2.     2.     2.     2.     2.     2.     2.     2.     2.
 2.     2.     2.     2.     2.     2.     2.     2.     2.     2.
 2.     2.     2.     2.     2.     2.     2.     2.     2.     2.
 2.     2.     2.     2.     2.     2.     2.     1.9999 1.9998 1.9996
 1.9226 1.3637 0.4767 0.2023 0.0274 0.0081]
entropy correction =  -0.017696984118319648
cycle= 13 E= -3138.87647387651  delta_E= -2.51e-06  |g|= 0.00133  |ddm|= 0.0244
HOMO:  -0.14644229771078582 LUMO:  -0.13681526170562827
Fermi energy:      -0.1426278703
[2.     2.     2.     2.     2.     2.     2.     2.     2.     2.
 2.     2.     2.     2.     2.     2.     2.     2.     2.     2.
 2.     2.     2.     2.     2.     2.     2.     2.     2.     2.
 2.     2.     2.     2.     2.     2.     2.     2.     2.     2.
 2.     2.     2.     2.     2.     2.     2.     2.     2.     2.
 2.     2.     2.     2.     2.     2.     2.     2.     2.     2.
 2.     2.     2.     2.     2.     2.     2.     2.     2.     2.
 2.     2.     2.     2.     2.     2.     2.     2.     2.     2.
 2.     2.     2.     2.     2.     2.     2.     2.     2.     2.
 2.     2.     2.     2.     2.     2.     2.     2.     2.     2.
 2.     2.     2.     2.     2.     2.     2.     2.     2.     2.
 2.     2.     2.     2.     2.     2.     2.     2.     2.     2.
 2.     2.     2.     2.     2.     2.     2.     2.     2.     2.
 2.     2.     2.     2.     2.     2.     2.     2.     2.     2.
 2.     2.     2.     2.     2.     2.     2.     1.9999 1.9998 1.9996
 1.9227 1.364  0.4764 0.2023 0.0274 0.0081]
entropy correction =  -0.017694132725401723
cycle= 14 E= -3138.87647420001  delta_E= -3.23e-07  |g|= 0.000715  |ddm|= 0.0208
HOMO:  -0.1464466889579108 LUMO:  -0.1368182595622224
Fermi energy:      -0.1426317403
[2.     2.     2.     2.     2.     2.     2.     2.     2.     2.
 2.     2.     2.     2.     2.     2.     2.     2.     2.     2.
 2.     2.     2.     2.     2.     2.     2.     2.     2.     2.
 2.     2.     2.     2.     2.     2.     2.     2.     2.     2.
 2.     2.     2.     2.     2.     2.     2.     2.     2.     2.
 2.     2.     2.     2.     2.     2.     2.     2.     2.     2.
 2.     2.     2.     2.     2.     2.     2.     2.     2.     2.
 2.     2.     2.     2.     2.     2.     2.     2.     2.     2.
 2.     2.     2.     2.     2.     2.     2.     2.     2.     2.
 2.     2.     2.     2.     2.     2.     2.     2.     2.     2.
 2.     2.     2.     2.     2.     2.     2.     2.     2.     2.
 2.     2.     2.     2.     2.     2.     2.     2.     2.     2.
 2.     2.     2.     2.     2.     2.     2.     2.     2.     2.
 2.     2.     2.     2.     2.     2.     2.     2.     2.     2.
 2.     2.     2.     2.     2.     2.     2.     1.9999 1.9998 1.9996
 1.9227 1.364  0.4764 0.2023 0.0274 0.0081]
entropy correction =  -0.01769378986155148
cycle= 15 E= -3138.87647427583  delta_E= -7.58e-08  |g|= 0.000341  |ddm|= 0.00422
HOMO:  -0.14644453151014666 LUMO:  -0.13682560614811717
Fermi energy:      -0.1426346364
[2.     2.     2.     2.     2.     2.     2.     2.     2.     2.
 2.     2.     2.     2.     2.     2.     2.     2.     2.     2.
 2.     2.     2.     2.     2.     2.     2.     2.     2.     2.
 2.     2.     2.     2.     2.     2.     2.     2.     2.     2.
 2.     2.     2.     2.     2.     2.     2.     2.     2.     2.
 2.     2.     2.     2.     2.     2.     2.     2.     2.     2.
 2.     2.     2.     2.     2.     2.     2.     2.     2.     2.
 2.     2.     2.     2.     2.     2.     2.     2.     2.     2.
 2.     2.     2.     2.     2.     2.     2.     2.     2.     2.
 2.     2.     2.     2.     2.     2.     2.     2.     2.     2.
 2.     2.     2.     2.     2.     2.     2.     2.     2.     2.
 2.     2.     2.     2.     2.     2.     2.     2.     2.     2.
 2.     2.     2.     2.     2.     2.     2.     2.     2.     2.
 2.     2.     2.     2.     2.     2.     2.     2.     2.     2.
 2.     2.     2.     2.     2.     2.     2.     1.9999 1.9998 1.9996
 1.9226 1.3636 0.4767 0.2025 0.0274 0.0081]
entropy correction =  -0.017698955056291904
cycle= 16 E= -3138.87647394189  delta_E= 3.34e-07  |g|= 0.00118  |ddm|= 0.0087
HOMO:  -0.14644642841594402 LUMO:  -0.1368206041346437
Fermi energy:      -0.1426329424
[2.     2.     2.     2.     2.     2.     2.     2.     2.     2.
 2.     2.     2.     2.     2.     2.     2.     2.     2.     2.
 2.     2.     2.     2.     2.     2.     2.     2.     2.     2.
 2.     2.     2.     2.     2.     2.     2.     2.     2.     2.
 2.     2.     2.     2.     2.     2.     2.     2.     2.     2.
 2.     2.     2.     2.     2.     2.     2.     2.     2.     2.
 2.     2.     2.     2.     2.     2.     2.     2.     2.     2.
 2.     2.     2.     2.     2.     2.     2.     2.     2.     2.
 2.     2.     2.     2.     2.     2.     2.     2.     2.     2.
 2.     2.     2.     2.     2.     2.     2.     2.     2.     2.
 2.     2.     2.     2.     2.     2.     2.     2.     2.     2.
 2.     2.     2.     2.     2.     2.     2.     2.     2.     2.
 2.     2.     2.     2.     2.     2.     2.     2.     2.     2.
 2.     2.     2.     2.     2.     2.     2.     2.     2.     2.
 2.     2.     2.     2.     2.     2.     2.     1.9999 1.9998 1.9996
 1.9227 1.3639 0.4764 0.2024 0.0274 0.0081]
entropy correction =  -0.017695402757714758
cycle= 17 E= -3138.87647426618  delta_E= -3.24e-07  |g|= 0.000448  |ddm|= 0.00673
HOMO:  -0.14645053107007452 LUMO:  -0.13682524110397606
Fermi energy:      -0.1426368834
[2.     2.     2.     2.     2.     2.     2.     2.     2.     2.
 2.     2.     2.     2.     2.     2.     2.     2.     2.     2.
 2.     2.     2.     2.     2.     2.     2.     2.     2.     2.
 2.     2.     2.     2.     2.     2.     2.     2.     2.     2.
 2.     2.     2.     2.     2.     2.     2.     2.     2.     2.
 2.     2.     2.     2.     2.     2.     2.     2.     2.     2.
 2.     2.     2.     2.     2.     2.     2.     2.     2.     2.
 2.     2.     2.     2.     2.     2.     2.     2.     2.     2.
 2.     2.     2.     2.     2.     2.     2.     2.     2.     2.
 2.     2.     2.     2.     2.     2.     2.     2.     2.     2.
 2.     2.     2.     2.     2.     2.     2.     2.     2.     2.
 2.     2.     2.     2.     2.     2.     2.     2.     2.     2.
 2.     2.     2.     2.     2.     2.     2.     2.     2.     2.
 2.     2.     2.     2.     2.     2.     2.     2.     2.     2.
 2.     2.     2.     2.     2.     2.     2.     1.9999 1.9998 1.9996
 1.9227 1.3639 0.4765 0.2023 0.0274 0.0081]
entropy correction =  -0.017694330504540574
cycle= 18 E= -3138.87647429814  delta_E= -3.2e-08  |g|= 0.000166  |ddm|= 0.00297
HOMO:  -0.1464483436089639 LUMO:  -0.13682159410723488
Fermi energy:      -0.1426343099
[2.     2.     2.     2.     2.     2.     2.     2.     2.     2.
 2.     2.     2.     2.     2.     2.     2.     2.     2.     2.
 2.     2.     2.     2.     2.     2.     2.     2.     2.     2.
 2.     2.     2.     2.     2.     2.     2.     2.     2.     2.
 2.     2.     2.     2.     2.     2.     2.     2.     2.     2.
 2.     2.     2.     2.     2.     2.     2.     2.     2.     2.
 2.     2.     2.     2.     2.     2.     2.     2.     2.     2.
 2.     2.     2.     2.     2.     2.     2.     2.     2.     2.
 2.     2.     2.     2.     2.     2.     2.     2.     2.     2.
 2.     2.     2.     2.     2.     2.     2.     2.     2.     2.
 2.     2.     2.     2.     2.     2.     2.     2.     2.     2.
 2.     2.     2.     2.     2.     2.     2.     2.     2.     2.
 2.     2.     2.     2.     2.     2.     2.     2.     2.     2.
 2.     2.     2.     2.     2.     2.     2.     2.     2.     2.
 2.     2.     2.     2.     2.     2.     2.     1.9999 1.9998 1.9996
 1.9227 1.3639 0.4764 0.2024 0.0274 0.0081]
entropy correction =  -0.017694452955780395
cycle= 19 E= -3138.87647430467  delta_E= -6.54e-09  |g|= 9.71e-05  |ddm|= 0.00154
HOMO:  -0.1464487760598622 LUMO:  -0.1368217143744794
Fermi energy:      -0.1426346036
[2.     2.     2.     2.     2.     2.     2.     2.     2.     2.
 2.     2.     2.     2.     2.     2.     2.     2.     2.     2.
 2.     2.     2.     2.     2.     2.     2.     2.     2.     2.
 2.     2.     2.     2.     2.     2.     2.     2.     2.     2.
 2.     2.     2.     2.     2.     2.     2.     2.     2.     2.
 2.     2.     2.     2.     2.     2.     2.     2.     2.     2.
 2.     2.     2.     2.     2.     2.     2.     2.     2.     2.
 2.     2.     2.     2.     2.     2.     2.     2.     2.     2.
 2.     2.     2.     2.     2.     2.     2.     2.     2.     2.
 2.     2.     2.     2.     2.     2.     2.     2.     2.     2.
 2.     2.     2.     2.     2.     2.     2.     2.     2.     2.
 2.     2.     2.     2.     2.     2.     2.     2.     2.     2.
 2.     2.     2.     2.     2.     2.     2.     2.     2.     2.
 2.     2.     2.     2.     2.     2.     2.     2.     2.     2.
 2.     2.     2.     2.     2.     2.     2.     1.9999 1.9998 1.9996
 1.9227 1.3639 0.4764 0.2024 0.0274 0.0081]
entropy correction =  -0.01769447266175767
cycle= 20 E= -3138.87647430578  delta_E= -1.1e-09  |g|= 5.72e-05  |ddm|= 0.000662
HOMO:  -0.14644793605579903 LUMO:  -0.13682128391624937
Fermi energy:      -0.1426339328
[2.     2.     2.     2.     2.     2.     2.     2.     2.     2.
 2.     2.     2.     2.     2.     2.     2.     2.     2.     2.
 2.     2.     2.     2.     2.     2.     2.     2.     2.     2.
 2.     2.     2.     2.     2.     2.     2.     2.     2.     2.
 2.     2.     2.     2.     2.     2.     2.     2.     2.     2.
 2.     2.     2.     2.     2.     2.     2.     2.     2.     2.
 2.     2.     2.     2.     2.     2.     2.     2.     2.     2.
 2.     2.     2.     2.     2.     2.     2.     2.     2.     2.
 2.     2.     2.     2.     2.     2.     2.     2.     2.     2.
 2.     2.     2.     2.     2.     2.     2.     2.     2.     2.
 2.     2.     2.     2.     2.     2.     2.     2.     2.     2.
 2.     2.     2.     2.     2.     2.     2.     2.     2.     2.
 2.     2.     2.     2.     2.     2.     2.     2.     2.     2.
 2.     2.     2.     2.     2.     2.     2.     2.     2.     2.
 2.     2.     2.     2.     2.     2.     2.     1.9999 1.9998 1.9996
 1.9227 1.3639 0.4764 0.2024 0.0274 0.0081]
entropy correction =  -0.017694637419784894
cycle= 21 E= -3138.87647430563  delta_E= 1.49e-10  |g|= 5.77e-05  |ddm|= 0.000388
HOMO:  -0.14644788348706847 LUMO:  -0.1368215985574762
Fermi energy:      -0.1426340386
[2.     2.     2.     2.     2.     2.     2.     2.     2.     2.
 2.     2.     2.     2.     2.     2.     2.     2.     2.     2.
 2.     2.     2.     2.     2.     2.     2.     2.     2.     2.
 2.     2.     2.     2.     2.     2.     2.     2.     2.     2.
 2.     2.     2.     2.     2.     2.     2.     2.     2.     2.
 2.     2.     2.     2.     2.     2.     2.     2.     2.     2.
 2.     2.     2.     2.     2.     2.     2.     2.     2.     2.
 2.     2.     2.     2.     2.     2.     2.     2.     2.     2.
 2.     2.     2.     2.     2.     2.     2.     2.     2.     2.
 2.     2.     2.     2.     2.     2.     2.     2.     2.     2.
 2.     2.     2.     2.     2.     2.     2.     2.     2.     2.
 2.     2.     2.     2.     2.     2.     2.     2.     2.     2.
 2.     2.     2.     2.     2.     2.     2.     2.     2.     2.
 2.     2.     2.     2.     2.     2.     2.     2.     2.     2.
 2.     2.     2.     2.     2.     2.     2.     1.9999 1.9998 1.9996
 1.9227 1.3639 0.4764 0.2024 0.0274 0.0081]
entropy correction =  -0.01769474484478431
cycle= 22 E= -3138.87647430607  delta_E= -4.42e-10  |g|= 4.48e-05  |ddm|= 0.000396
HOMO:  -0.14644790849136627 LUMO:  -0.13682161542028282
Fermi energy:      -0.1426340679
[2.     2.     2.     2.     2.     2.     2.     2.     2.     2.
 2.     2.     2.     2.     2.     2.     2.     2.     2.     2.
 2.     2.     2.     2.     2.     2.     2.     2.     2.     2.
 2.     2.     2.     2.     2.     2.     2.     2.     2.     2.
 2.     2.     2.     2.     2.     2.     2.     2.     2.     2.
 2.     2.     2.     2.     2.     2.     2.     2.     2.     2.
 2.     2.     2.     2.     2.     2.     2.     2.     2.     2.
 2.     2.     2.     2.     2.     2.     2.     2.     2.     2.
 2.     2.     2.     2.     2.     2.     2.     2.     2.     2.
 2.     2.     2.     2.     2.     2.     2.     2.     2.     2.
 2.     2.     2.     2.     2.     2.     2.     2.     2.     2.
 2.     2.     2.     2.     2.     2.     2.     2.     2.     2.
 2.     2.     2.     2.     2.     2.     2.     2.     2.     2.
 2.     2.     2.     2.     2.     2.     2.     2.     2.     2.
 2.     2.     2.     2.     2.     2.     2.     1.9999 1.9998 1.9996
 1.9227 1.3639 0.4764 0.2024 0.0274 0.0081]
entropy correction =  -0.017694727984034726
cycle= 23 E= -3138.87647430634  delta_E= -2.73e-10  |g|= 3.19e-05  |ddm|= 0.000641
HOMO:  -0.1464481137187626 LUMO:  -0.13682156527942563
Fermi energy:      -0.1426341250
[2.     2.     2.     2.     2.     2.     2.     2.     2.     2.
 2.     2.     2.     2.     2.     2.     2.     2.     2.     2.
 2.     2.     2.     2.     2.     2.     2.     2.     2.     2.
 2.     2.     2.     2.     2.     2.     2.     2.     2.     2.
 2.     2.     2.     2.     2.     2.     2.     2.     2.     2.
 2.     2.     2.     2.     2.     2.     2.     2.     2.     2.
 2.     2.     2.     2.     2.     2.     2.     2.     2.     2.
 2.     2.     2.     2.     2.     2.     2.     2.     2.     2.
 2.     2.     2.     2.     2.     2.     2.     2.     2.     2.
 2.     2.     2.     2.     2.     2.     2.     2.     2.     2.
 2.     2.     2.     2.     2.     2.     2.     2.     2.     2.
 2.     2.     2.     2.     2.     2.     2.     2.     2.     2.
 2.     2.     2.     2.     2.     2.     2.     2.     2.     2.
 2.     2.     2.     2.     2.     2.     2.     2.     2.     2.
 2.     2.     2.     2.     2.     2.     2.     1.9999 1.9998 1.9996
 1.9227 1.3639 0.4764 0.2024 0.0274 0.0081]
entropy correction =  -0.01769454800292874
cycle= 24 E= -3138.87647430619  delta_E= 1.49e-10  |g|= 4e-05  |ddm|= 0.000438
HOMO:  -0.14644818520039452 LUMO:  -0.13682177833771741
Fermi energy:      -0.1426342702
[2.     2.     2.     2.     2.     2.     2.     2.     2.     2.
 2.     2.     2.     2.     2.     2.     2.     2.     2.     2.
 2.     2.     2.     2.     2.     2.     2.     2.     2.     2.
 2.     2.     2.     2.     2.     2.     2.     2.     2.     2.
 2.     2.     2.     2.     2.     2.     2.     2.     2.     2.
 2.     2.     2.     2.     2.     2.     2.     2.     2.     2.
 2.     2.     2.     2.     2.     2.     2.     2.     2.     2.
 2.     2.     2.     2.     2.     2.     2.     2.     2.     2.
 2.     2.     2.     2.     2.     2.     2.     2.     2.     2.
 2.     2.     2.     2.     2.     2.     2.     2.     2.     2.
 2.     2.     2.     2.     2.     2.     2.     2.     2.     2.
 2.     2.     2.     2.     2.     2.     2.     2.     2.     2.
 2.     2.     2.     2.     2.     2.     2.     2.     2.     2.
 2.     2.     2.     2.     2.     2.     2.     2.     2.     2.
 2.     2.     2.     2.     2.     2.     2.     1.9999 1.9998 1.9996
 1.9227 1.3639 0.4764 0.2024 0.0274 0.0081]
entropy correction =  -0.017694624863918006
cycle= 25 E= -3138.87647430651  delta_E= -3.15e-10  |g|= 1.51e-05  |ddm|= 0.000466
HOMO:  -0.1464477729070433 LUMO:  -0.13682103049438446
Fermi energy:      -0.1426337269
[2.     2.     2.     2.     2.     2.     2.     2.     2.     2.
 2.     2.     2.     2.     2.     2.     2.     2.     2.     2.
 2.     2.     2.     2.     2.     2.     2.     2.     2.     2.
 2.     2.     2.     2.     2.     2.     2.     2.     2.     2.
 2.     2.     2.     2.     2.     2.     2.     2.     2.     2.
 2.     2.     2.     2.     2.     2.     2.     2.     2.     2.
 2.     2.     2.     2.     2.     2.     2.     2.     2.     2.
 2.     2.     2.     2.     2.     2.     2.     2.     2.     2.
 2.     2.     2.     2.     2.     2.     2.     2.     2.     2.
 2.     2.     2.     2.     2.     2.     2.     2.     2.     2.
 2.     2.     2.     2.     2.     2.     2.     2.     2.     2.
 2.     2.     2.     2.     2.     2.     2.     2.     2.     2.
 2.     2.     2.     2.     2.     2.     2.     2.     2.     2.
 2.     2.     2.     2.     2.     2.     2.     2.     2.     2.
 2.     2.     2.     2.     2.     2.     2.     1.9999 1.9998 1.9996
 1.9227 1.3639 0.4764 0.2024 0.0274 0.0081]
entropy correction =  -0.01769460267163917
Extra cycle  E= -3138.87647430408  delta_E= 2.43e-09  |g|= 9.54e-05  |ddm|= 0.000681
converged SCF energy = -3138.87647430408

ECP were dectected in the molden file.
Note Molden format does not support ECP data. ECP information was lost when saving to molden format.

<class 'pydmfet.qcwrap.pyscf_rks_ao.rks_ao'> does not have attributes  coredm ne_frozen add_coredm_ext_energy vext_1e
