#INFO: **** input file is /tigress/xingz/pydmfet/examples/research/proj/Cu2/dmfet/Cu2.py ****
from pydmfet import locints, sdmfet, oep, tools, dfet_ao, proj_ao
from pydmfet.dfet_ao import dfet
from pydmfet.qcwrap.pyscf_rks_ao import rks_ao
from pyscf import gto, scf,dft, ao2mo,cc
import numpy as np
from pyscf.tools import molden, cubegen
import copy,time
from pydmfet.tools.sym import h_lattice_sym_tab
import time

t0 = (time.clock(), time.time())


bas = 'lanl2dz'
ecp = 'lanl2dz'
temp = 0.005


mol = gto.Mole()
mol.atom = open('Cu2.xyz').read()
mol.basis = bas
mol.ecp = ecp
mol.charge = -2
mol.build(max_memory = 16000, verbose=4)

mf = rks_ao(mol,smear_sigma = temp)
mf.xc = 'pbe,pbe'
mf.max_cycle = 50
mf.scf(dm0=None)


natoms = mol.natm
impAtom = np.zeros([natoms], dtype=int)
for i in range(2):
    impAtom[i] = 1

ghost_frag = 1-impAtom
ghost_env = 1-ghost_frag

mol_frag = gto.Mole()
mol_frag.atom = tools.add_ghost(mol.atom, ghost_frag)
mol_frag.basis = bas
mol_frag.ecp = ecp
mol_frag.charge = 4
mol_frag.build(max_memory = 16000,verbose = 4)

mol_env = gto.Mole()
mol_env.atom = tools.add_ghost(mol.atom, ghost_env)
mol_env.basis =  bas
mol_env.ecp = ecp
mol_env.charge = -6
mol_env.build(max_memory = 16000,verbose = 4)

Ne_frag = 34
Ne_env = 48

boundary_atoms = None
boundary_atoms2 =None

umat = None
umat = np.load("umat.npy")

params = oep.OEPparams(algorithm = 'leastsq', opt_method = 'L-BFGS-B', diffP_tol=1e-3, outer_maxit = 20)
params.options['ftol'] = 1e-10
params.options['gtol'] = 1e-3
params.options['maxiter'] = 200
params.options['svd_thresh'] = 1e-2

theDMFET = dfet.DFET(mf, mol_frag, mol_env,Ne_frag,Ne_env,\
                     boundary_atoms=boundary_atoms, boundary_atoms2=boundary_atoms2,umat = umat,\
                     oep_params=params, smear_sigma=temp, ecw_method = 'hf',mf_method = mf.xc, plot_dens=True,\
                     scf_max_cycle = 200)

umat = theDMFET.embedding_potential()

t1 = tools.timer("total calc time", t0)
#INFO: ******************** input file end ********************


System: uname_result(system='Linux', node='tiger-h21c2n24', release='3.10.0-957.27.2.el7.x86_64', version='#1 SMP Tue Jul 30 11:12:20 EDT 2019', machine='x86_64', processor='x86_64')  Threads 40
Python 3.7.0 (default, Jun 28 2018, 13:15:42) 
[GCC 7.2.0]
numpy 1.16.4  scipy 1.4.0.dev0+0f78e0f
Date: Mon Sep  9 13:10:35 2019
PySCF version 1.5
PySCF path  /home/xingz/.local/lib/python3.7/site-packages/pyscf

[CONFIG] conf_file None
[INPUT] verbose = 4
[INPUT] num. atoms = 8
[INPUT] num. electrons = 82
[INPUT] charge = -2
[INPUT] spin (= nelec alpha-beta = 2S) = 0
[INPUT] symmetry False subgroup None
[INPUT] Mole.unit = angstrom
[INPUT]  1 Cu    -0.441980000000   1.042360000000  -0.035730000000 AA   -0.835221152535   1.969774923202  -0.067519914431 Bohr
[INPUT]  2 Cu     2.942440000000   1.248890000000   0.035730000000 AA    5.560405737965   2.360060059708   0.067519914431 Bohr
[INPUT]  3 Cl    -1.897990000000  -0.682570000000   0.075050000000 AA   -3.586681287163  -1.289870360844   0.141823945649 Bohr
[INPUT]  4 Cl    -2.090880000000   2.577820000000  -0.212080000000 AA   -3.951190559331   4.871373798426  -0.400773116498 Bohr
[INPUT]  5 Cl     1.158810000000   2.690810000000  -0.136080000000 AA    2.189833530407   5.084893953241  -0.257153931031 Bohr
[INPUT]  6 Cl     1.341650000000  -0.399560000000   0.136080000000 AA    2.535351055023  -0.755058970331   0.257153931031 Bohr
[INPUT]  7 Cl     4.398440000000   2.973820000000  -0.075050000000 AA    8.311846975332   5.619705343754  -0.141823945649 Bohr
[INPUT]  8 Cl     4.591340000000  -0.286580000000   0.212080000000 AA    8.676375144761  -0.541557712778   0.400773116498 Bohr

nuclear repulsion = 451.217501293853
number of shells = 38
number of NR pGTOs = 162
number of NR cGTOs = 92
basis = lanl2dz
ecp = lanl2dz
CPU time:         4.71
rks_ao.ne_frozen =  0


******** <class 'pydmfet.qcwrap.pyscf_rks_ao.rks_ao'> flags ********
method = rks_ao-RKS-RHF
initial guess = minao
damping factor = 0
level shift factor = 0
DIIS = <class 'pyscf.scf.diis.CDIIS'>
DIIS start cycle = 1
DIIS space = 8
SCF tol = 1e-09
SCF gradient tol = None
max. SCF cycles = 50
direct_scf = False
chkfile to save SCF result = /tmp/tmp2o5ou3yk
max_memory 16000 MB (current use 67 MB)
XC functionals = pbe,pbe
small_rho_cutoff = 1e-07
radial grids: 
    Treutler-Ahlrichs (JCP 102, 346 (M4)) radial grids
    
becke partition: Becke, JCP, 88, 2547 (1988)
pruning grids: <function nwchem_prune at 0x2b3f6e1d1400>
grids dens level: 3
symmetrized grids: False
atomic radii adjust function: <function treutler_atomic_radii_adjust at 0x2b3f6e1d1378>
Set gradient conv threshold to 3.16228e-05
tot grids = 154128
init E= -467.462792451998
HOMO:  0.2187487143707622 LUMO:  0.22831437501940235
Fermi energy:       0.2235718634
[2.     2.     2.     2.     2.     2.     2.     2.     2.     2.
 2.     2.     2.     2.     2.     2.     2.     2.     2.     2.
 2.     2.     2.     2.     2.     2.     2.     2.     2.     2.
 2.     2.     2.     2.     2.     2.     2.     2.     2.     1.9935
 1.4481 0.5584]
entropy correction =  -0.012030461857608192
cycle= 1 E= -410.105804071394  delta_E= 57.4  |g|= 8.39  |ddm|= 25.9
HOMO:  -1.5630096420726172 LUMO:  -1.5367266498378989
Fermi energy:      -1.5499972181
[2.0000e+00 2.0000e+00 2.0000e+00 2.0000e+00 2.0000e+00 2.0000e+00
 2.0000e+00 2.0000e+00 2.0000e+00 2.0000e+00 2.0000e+00 2.0000e+00
 2.0000e+00 2.0000e+00 2.0000e+00 2.0000e+00 2.0000e+00 2.0000e+00
 2.0000e+00 2.0000e+00 2.0000e+00 2.0000e+00 2.0000e+00 2.0000e+00
 2.0000e+00 2.0000e+00 2.0000e+00 2.0000e+00 2.0000e+00 2.0000e+00
 2.0000e+00 2.0000e+00 2.0000e+00 2.0000e+00 2.0000e+00 2.0000e+00
 2.0000e+00 2.0000e+00 2.0000e+00 1.9796e+00 1.8620e+00 1.3147e-01
 2.6598e-02 2.7833e-04]
entropy correction =  -0.006223922518915514
cycle= 2 E= -401.538612213431  delta_E= 8.57  |g|= 7.31  |ddm|= 29.4
HOMO:  -0.13457902039486308 LUMO:  -0.05948338425679992
Fermi energy:      -0.0972415566
[2.0000e+00 2.0000e+00 2.0000e+00 2.0000e+00 2.0000e+00 2.0000e+00
 2.0000e+00 2.0000e+00 2.0000e+00 2.0000e+00 2.0000e+00 2.0000e+00
 2.0000e+00 2.0000e+00 2.0000e+00 2.0000e+00 2.0000e+00 2.0000e+00
 2.0000e+00 2.0000e+00 2.0000e+00 2.0000e+00 2.0000e+00 2.0000e+00
 2.0000e+00 2.0000e+00 2.0000e+00 2.0000e+00 2.0000e+00 2.0000e+00
 2.0000e+00 2.0000e+00 2.0000e+00 2.0000e+00 2.0000e+00 2.0000e+00
 2.0000e+00 2.0000e+00 2.0000e+00 2.0000e+00 1.9989e+00 1.0500e-03]
entropy correction =  -9.86246310850249e-05
cycle= 3 E= -466.993953695778  delta_E= -65.5  |g|= 5.85  |ddm|= 17.5
HOMO:  -0.19632377953860167 LUMO:  -0.19597791274160264
Fermi energy:      -0.1928443984
[2.     2.     2.     2.     2.     2.     2.     2.     2.     2.
 2.     2.     2.     2.     2.     2.     2.     2.     2.     2.
 2.     2.     2.     2.     2.     2.     2.     2.     2.     2.
 2.     2.     1.9998 1.9993 1.9979 1.9965 1.9471 1.9432 1.7416 1.7367
 1.3345 1.3035]
entropy correction =  -0.02333743947619162
cycle= 4 E= -479.585920348137  delta_E= -12.6  |g|= 3.08  |ddm|=   11
HOMO:  -0.0593382738716952 LUMO:  -0.05834657233047229
Fermi energy:      -0.0587610219
[2.     2.     2.     2.     2.     2.     2.     2.     2.     2.
 2.     2.     2.     2.     2.     2.     2.     2.     2.     2.
 2.     2.     2.     2.     2.     2.     2.     2.     2.     2.
 2.     2.     2.     2.     2.     2.     2.     2.     1.9952 1.9886
 1.0577 0.9586]
entropy correction =  -0.01435902943114761
cycle= 5 E= -480.692882283187  delta_E= -1.11  |g|= 2.31  |ddm|= 2.58
HOMO:  -0.08914554980588049 LUMO:  -0.08619386496822726
Fermi energy:      -0.0862274399
[2.     2.     2.     2.     2.     2.     2.     2.     2.     2.
 2.     2.     2.     2.     2.     2.     2.     2.     2.     2.
 2.     2.     2.     2.     2.     2.     2.     2.     2.     2.
 2.     2.     2.     1.9996 1.9996 1.9987 1.9985 1.9947 1.9796 1.7489
 1.2838 0.9966]
entropy correction =  -0.018143353044553816
cycle= 6 E= -481.537345800992  delta_E= -0.844  |g|= 1.68  |ddm|= 1.24
HOMO:  -0.036723945372831794 LUMO:  -0.03666691925235052
Fermi energy:      -0.0355754632
[2.     2.     2.     2.     2.     2.     2.     2.     2.     2.
 2.     2.     2.     2.     2.     2.     2.     2.     2.     2.
 2.     2.     2.     2.     2.     2.     2.     2.     2.     2.
 2.     2.     1.9994 1.9978 1.9955 1.9897 1.9852 1.9687 1.9249 1.9157
 1.1143 1.1087]
entropy correction =  -0.01892404124195801
cycle= 7 E= -481.434005675675  delta_E= 0.103  |g|= 1.83  |ddm|= 1.23
HOMO:  -0.031738420051084446 LUMO:  -0.028304041170061932
Fermi energy:      -0.0293123723
[2.     2.     2.     2.     2.     2.     2.     2.     2.     2.
 2.     2.     2.     2.     2.     2.     2.     2.     2.     2.
 2.     2.     2.     2.     2.     2.     2.     2.     2.     2.
 2.     2.     1.9999 1.9995 1.9994 1.9991 1.9991 1.9983 1.9857 1.8815
 1.238  0.8995]
entropy correction =  -0.016403779535511614
cycle= 8 E= -481.849488238146  delta_E= -0.415  |g|= 1.29  |ddm|= 1.31
HOMO:  -0.010333376748521446 LUMO:  0.0007074607319600143
Fermi energy:      -0.0039251597
[2.     2.     2.     2.     2.     2.     2.     2.     2.     2.
 2.     2.     2.     2.     2.     2.     2.     2.     2.     2.
 2.     2.     2.     2.     2.     2.     2.     2.     2.     2.
 2.     1.9993 1.9989 1.9983 1.9929 1.9922 1.9893 1.984  1.9793 1.9331
 1.5655 0.5673]
entropy correction =  -0.014677098352324803
cycle= 9 E= -482.044475986777  delta_E= -0.195  |g|= 1.07  |ddm|= 0.906
HOMO:  0.06987607255706127 LUMO:  0.08736480520797893
Fermi energy:       0.0786614214
[2.     2.     2.     2.     2.     2.     2.     2.     2.     2.
 2.     2.     2.     2.     2.     2.     2.     2.     2.     2.
 2.     2.     2.     2.     2.     2.     2.     2.     2.     2.
 2.     2.     2.     2.     2.     2.     1.9997 1.9996 1.9983 1.9983
 1.7057 0.2985]
entropy correction =  -0.008565034105129144
cycle= 10 E= -482.032581879696  delta_E= 0.0119  |g|= 0.915  |ddm|= 1.43
HOMO:  0.08962837478577929 LUMO:  0.13004696660940313
Fermi energy:       0.1120849791
[2.     2.     2.     2.     2.     2.     2.     2.     2.     2.
 2.     2.     2.     2.     2.     2.     2.     2.     2.     2.
 2.     2.     2.     2.     2.     2.     2.     2.     2.     2.
 2.     2.     2.     2.     2.     2.     2.     1.9948 1.9914 1.9824
 1.9778 0.0536]
entropy correction =  -0.0028063847696661215
cycle= 11 E= -481.373880259636  delta_E= 0.659  |g|=  1.9  |ddm|= 2.31
HOMO:  0.05502647010541478 LUMO:  0.0638415909370365
Fermi energy:       0.0595089658
[2.     2.     2.     2.     2.     2.     2.     2.     2.     2.
 2.     2.     2.     2.     2.     2.     2.     2.     2.     2.
 2.     2.     2.     2.     2.     2.     2.     2.     2.     2.
 2.     2.     2.     1.9999 1.9995 1.9994 1.9993 1.9992 1.9982 1.992
 1.4205 0.592 ]
entropy correction =  -0.012547716263060461
cycle= 12 E= -482.271816529093  delta_E= -0.898  |g|= 0.277  |ddm|= 1.34
HOMO:  0.05643860955924819 LUMO:  0.07796708284838774
Fermi energy:       0.0675524747
[2.     2.     2.     2.     2.     2.     2.     2.     2.     2.
 2.     2.     2.     2.     2.     2.     2.     2.     2.     2.
 2.     2.     2.     2.     2.     2.     2.     2.     2.     2.
 2.     2.     2.     2.     2.     2.     1.9977 1.9957 1.995  1.9855
 1.8046 0.2215]
entropy correction =  -0.0075306773436558715
cycle= 13 E= -482.060208342027  delta_E= 0.212  |g|= 0.773  |ddm|= 1.43
HOMO:  0.05617821662107736 LUMO:  0.06568034715433375
Fermi energy:       0.0610293925
[2.     2.     2.     2.     2.     2.     2.     2.     2.     2.
 2.     2.     2.     2.     2.     2.     2.     2.     2.     2.
 2.     2.     2.     2.     2.     2.     2.     2.     2.     2.
 2.     2.     1.9999 1.9998 1.9994 1.9992 1.9992 1.999  1.9978 1.9895
 1.4503 0.5658]
entropy correction =  -0.012402978261337586
cycle= 14 E= -482.267546249026  delta_E= -0.207  |g|= 0.281  |ddm|= 0.726
HOMO:  0.05930112595972602 LUMO:  0.06695698250569058
Fermi energy:       0.0631998465
[2.     2.     2.     2.     2.     2.     2.     2.     2.     2.
 2.     2.     2.     2.     2.     2.     2.     2.     2.     2.
 2.     2.     2.     2.     2.     2.     2.     2.     2.     2.
 2.     2.     1.9999 1.9998 1.9994 1.9994 1.9994 1.9993 1.9984 1.9921
 1.3712 0.641 ]
entropy correction =  -0.012948192695889316
cycle= 15 E= -482.288830977763  delta_E= -0.0213  |g|= 0.142  |ddm|= 0.204
HOMO:  0.06033518956953485 LUMO:  0.06854982976245272
Fermi energy:       0.0644944493
[2.     2.     2.     2.     2.     2.     2.     2.     2.     2.
 2.     2.     2.     2.     2.     2.     2.     2.     2.     2.
 2.     2.     2.     2.     2.     2.     2.     2.     2.     2.
 2.     2.     2.     1.9998 1.9996 1.9995 1.9994 1.9994 1.9988 1.9946
 1.3935 0.6153]
entropy correction =  -0.012649979483238094
cycle= 16 E= -482.286904600766  delta_E= 0.00193  |g|= 0.167  |ddm|= 0.0792
HOMO:  0.06025941721234097 LUMO:  0.06764775012287316
Fermi energy:       0.0640073155
[2.     2.     2.     2.     2.     2.     2.     2.     2.     2.
 2.     2.     2.     2.     2.     2.     2.     2.     2.     2.
 2.     2.     2.     2.     2.     2.     2.     2.     2.     2.
 2.     2.     2.     1.9998 1.9996 1.9995 1.9994 1.9992 1.9991 1.9941
 1.3582 0.6512]
entropy correction =  -0.012946747448026836
cycle= 17 E= -482.294507326345  delta_E= -0.0076  |g|= 0.0877  |ddm|= 0.123
HOMO:  0.060848833596749856 LUMO:  0.06807282693650081
Fermi energy:       0.0645100754
[2.     2.     2.     2.     2.     2.     2.     2.     2.     2.
 2.     2.     2.     2.     2.     2.     2.     2.     2.     2.
 2.     2.     2.     2.     2.     2.     2.     2.     2.     2.
 2.     2.     2.     1.9998 1.9996 1.9995 1.9995 1.9993 1.9991 1.9946
 1.3506 0.6581]
entropy correction =  -0.01297528693252097
cycle= 18 E= -482.296571538123  delta_E= -0.00206  |g|= 0.0329  |ddm|= 0.0713
HOMO:  0.061133911131953655 LUMO:  0.06835676586372445
Fermi energy:       0.0647923579
[2.     2.     2.     2.     2.     2.     2.     2.     2.     2.
 2.     2.     2.     2.     2.     2.     2.     2.     2.     2.
 2.     2.     2.     2.     2.     2.     2.     2.     2.     2.
 2.     2.     2.     1.9998 1.9996 1.9995 1.9995 1.9993 1.9992 1.9949
 1.3504 0.6579]
entropy correction =  -0.012962825254653611
cycle= 19 E= -482.296935691014  delta_E= -0.000364  |g|= 0.0135  |ddm|= 0.0338
HOMO:  0.06119730727883526 LUMO:  0.06843033123187318
Fermi energy:       0.0648595294
[2.     2.     2.     2.     2.     2.     2.     2.     2.     2.
 2.     2.     2.     2.     2.     2.     2.     2.     2.     2.
 2.     2.     2.     2.     2.     2.     2.     2.     2.     2.
 2.     2.     2.     1.9998 1.9996 1.9995 1.9995 1.9993 1.9992 1.995
 1.3507 0.6574]
entropy correction =  -0.012951982824205439
cycle= 20 E= -482.296785655072  delta_E= 0.00015  |g|= 0.0243  |ddm|= 0.0548
HOMO:  0.06124454865440002 LUMO:  0.068445524688158
Fermi energy:       0.0648915484
[2.     2.     2.     2.     2.     2.     2.     2.     2.     2.
 2.     2.     2.     2.     2.     2.     2.     2.     2.     2.
 2.     2.     2.     2.     2.     2.     2.     2.     2.     2.
 2.     2.     2.     1.9998 1.9996 1.9995 1.9995 1.9993 1.9992 1.9949
 1.3493 0.6588]
entropy correction =  -0.012967051103032068
cycle= 21 E= -482.297009057677  delta_E= -0.000223  |g|= 0.00164  |ddm|= 0.0331
HOMO:  0.061224146350044265 LUMO:  0.06842042778670362
Fermi energy:       0.0648688810
[2.     2.     2.     2.     2.     2.     2.     2.     2.     2.
 2.     2.     2.     2.     2.     2.     2.     2.     2.     2.
 2.     2.     2.     2.     2.     2.     2.     2.     2.     2.
 2.     2.     2.     1.9998 1.9996 1.9995 1.9995 1.9993 1.9992 1.9949
 1.3491 0.6591]
entropy correction =  -0.012969079620228663
cycle= 22 E= -482.297010234358  delta_E= -1.18e-06  |g|= 0.000475  |ddm|= 0.0031
HOMO:  0.06121653587131939 LUMO:  0.0684162098027207
Fermi energy:       0.0648628034
[2.     2.     2.     2.     2.     2.     2.     2.     2.     2.
 2.     2.     2.     2.     2.     2.     2.     2.     2.     2.
 2.     2.     2.     2.     2.     2.     2.     2.     2.     2.
 2.     2.     2.     1.9998 1.9996 1.9995 1.9995 1.9993 1.9992 1.9949
 1.3493 0.6589]
entropy correction =  -0.012967028929285767
cycle= 23 E= -482.297010284206  delta_E= -4.98e-08  |g|= 0.000306  |ddm|= 0.000873
HOMO:  0.061212172486630446 LUMO:  0.068411311512942
Fermi energy:       0.0648582839
[2.     2.     2.     2.     2.     2.     2.     2.     2.     2.
 2.     2.     2.     2.     2.     2.     2.     2.     2.     2.
 2.     2.     2.     2.     2.     2.     2.     2.     2.     2.
 2.     2.     2.     1.9998 1.9996 1.9995 1.9995 1.9993 1.9992 1.9949
 1.3493 0.6589]
entropy correction =  -0.01296784487414457
cycle= 24 E= -482.297010287941  delta_E= -3.73e-09  |g|= 0.000268  |ddm|= 0.000349
HOMO:  0.061211471374269695 LUMO:  0.06841074844295836
Fermi energy:       0.0648576491
[2.     2.     2.     2.     2.     2.     2.     2.     2.     2.
 2.     2.     2.     2.     2.     2.     2.     2.     2.     2.
 2.     2.     2.     2.     2.     2.     2.     2.     2.     2.
 2.     2.     2.     1.9998 1.9996 1.9995 1.9995 1.9993 1.9992 1.9949
 1.3493 0.6589]
entropy correction =  -0.012967784457153061
cycle= 25 E= -482.297010314492  delta_E= -2.66e-08  |g|= 2.89e-05  |ddm|= 0.000432
HOMO:  0.06121108351577187 LUMO:  0.06841037897362814
Fermi energy:       0.0648572733
[2.     2.     2.     2.     2.     2.     2.     2.     2.     2.
 2.     2.     2.     2.     2.     2.     2.     2.     2.     2.
 2.     2.     2.     2.     2.     2.     2.     2.     2.     2.
 2.     2.     2.     1.9998 1.9996 1.9995 1.9995 1.9993 1.9992 1.9949
 1.3493 0.6589]
entropy correction =  -0.012967794882221842
cycle= 26 E= -482.29701031476  delta_E= -2.68e-10  |g|= 6.77e-06  |ddm|= 3.23e-05
HOMO:  0.0612111248310983 LUMO:  0.06841041305910404
Fermi energy:       0.0648573123
[2.     2.     2.     2.     2.     2.     2.     2.     2.     2.
 2.     2.     2.     2.     2.     2.     2.     2.     2.     2.
 2.     2.     2.     2.     2.     2.     2.     2.     2.     2.
 2.     2.     2.     1.9998 1.9996 1.9995 1.9995 1.9993 1.9992 1.9949
 1.3493 0.6589]
entropy correction =  -0.012967804444701747
Extra cycle  E= -482.297010308465  delta_E= 6.3e-09  |g|= 0.000137  |ddm|= 0.000194
converged SCF energy = -482.297010308465
#INFO: **** input file is /tigress/xingz/pydmfet/examples/research/proj/Cu2/dmfet/Cu2.py ****
from pydmfet import locints, sdmfet, oep, tools, dfet_ao, proj_ao
from pydmfet.dfet_ao import dfet
from pydmfet.qcwrap.pyscf_rks_ao import rks_ao
from pyscf import gto, scf,dft, ao2mo,cc
import numpy as np
from pyscf.tools import molden, cubegen
import copy,time
from pydmfet.tools.sym import h_lattice_sym_tab
import time

t0 = (time.clock(), time.time())


bas = 'lanl2dz'
ecp = 'lanl2dz'
temp = 0.005


mol = gto.Mole()
mol.atom = open('Cu2.xyz').read()
mol.basis = bas
mol.ecp = ecp
mol.charge = -2
mol.build(max_memory = 16000, verbose=4)

mf = rks_ao(mol,smear_sigma = temp)
mf.xc = 'pbe,pbe'
mf.max_cycle = 50
mf.scf(dm0=None)


natoms = mol.natm
impAtom = np.zeros([natoms], dtype=int)
for i in range(2):
    impAtom[i] = 1

ghost_frag = 1-impAtom
ghost_env = 1-ghost_frag

mol_frag = gto.Mole()
mol_frag.atom = tools.add_ghost(mol.atom, ghost_frag)
mol_frag.basis = bas
mol_frag.ecp = ecp
mol_frag.charge = 4
mol_frag.build(max_memory = 16000,verbose = 4)

mol_env = gto.Mole()
mol_env.atom = tools.add_ghost(mol.atom, ghost_env)
mol_env.basis =  bas
mol_env.ecp = ecp
mol_env.charge = -6
mol_env.build(max_memory = 16000,verbose = 4)

Ne_frag = 34
Ne_env = 48

boundary_atoms = None
boundary_atoms2 =None

umat = None
umat = np.load("umat.npy")

params = oep.OEPparams(algorithm = 'leastsq', opt_method = 'L-BFGS-B', diffP_tol=1e-3, outer_maxit = 20)
params.options['ftol'] = 1e-10
params.options['gtol'] = 1e-3
params.options['maxiter'] = 200
params.options['svd_thresh'] = 1e-2

theDMFET = dfet.DFET(mf, mol_frag, mol_env,Ne_frag,Ne_env,\
                     boundary_atoms=boundary_atoms, boundary_atoms2=boundary_atoms2,umat = umat,\
                     oep_params=params, smear_sigma=temp, ecw_method = 'hf',mf_method = mf.xc, plot_dens=True,\
                     scf_max_cycle = 200)

umat = theDMFET.embedding_potential()

t1 = tools.timer("total calc time", t0)
#INFO: ******************** input file end ********************


System: uname_result(system='Linux', node='tiger-h21c2n24', release='3.10.0-957.27.2.el7.x86_64', version='#1 SMP Tue Jul 30 11:12:20 EDT 2019', machine='x86_64', processor='x86_64')  Threads 40
Python 3.7.0 (default, Jun 28 2018, 13:15:42) 
[GCC 7.2.0]
numpy 1.16.4  scipy 1.4.0.dev0+0f78e0f
Date: Mon Sep  9 13:10:58 2019
PySCF version 1.5
PySCF path  /home/xingz/.local/lib/python3.7/site-packages/pyscf

[CONFIG] conf_file None
[INPUT] verbose = 4
[INPUT] num. atoms = 8
[INPUT] num. electrons = 34
[INPUT] charge = 4
[INPUT] spin (= nelec alpha-beta = 2S) = 0
[INPUT] symmetry False subgroup None
[INPUT] Mole.unit = angstrom
[INPUT]  1 Cu    -0.441980000000   1.042360000000  -0.035730000000 AA   -0.835221152535   1.969774923202  -0.067519914431 Bohr
[INPUT]  2 Cu     2.942440000000   1.248890000000   0.035730000000 AA    5.560405737965   2.360060059708   0.067519914431 Bohr
[INPUT]  3 GHOST-Cl  -1.897990000000  -0.682570000000   0.075050000000 AA   -3.586681287163  -1.289870360844   0.141823945649 Bohr
[INPUT]  4 GHOST-Cl  -2.090880000000   2.577820000000  -0.212080000000 AA   -3.951190559331   4.871373798426  -0.400773116498 Bohr
[INPUT]  5 GHOST-Cl   1.158810000000   2.690810000000  -0.136080000000 AA    2.189833530407   5.084893953241  -0.257153931031 Bohr
[INPUT]  6 GHOST-Cl   1.341650000000  -0.399560000000   0.136080000000 AA    2.535351055023  -0.755058970331   0.257153931031 Bohr
[INPUT]  7 GHOST-Cl   4.398440000000   2.973820000000  -0.075050000000 AA    8.311846975332   5.619705343754  -0.141823945649 Bohr
[INPUT]  8 GHOST-Cl   4.591340000000  -0.286580000000   0.212080000000 AA    8.676375144761  -0.541557712778   0.400773116498 Bohr

nuclear repulsion = 56.3275059639967
number of shells = 38
number of NR pGTOs = 162
number of NR cGTOs = 92
basis = lanl2dz
ecp = lanl2dz
CPU time:       601.44
#INFO: **** input file is /tigress/xingz/pydmfet/examples/research/proj/Cu2/dmfet/Cu2.py ****
from pydmfet import locints, sdmfet, oep, tools, dfet_ao, proj_ao
from pydmfet.dfet_ao import dfet
from pydmfet.qcwrap.pyscf_rks_ao import rks_ao
from pyscf import gto, scf,dft, ao2mo,cc
import numpy as np
from pyscf.tools import molden, cubegen
import copy,time
from pydmfet.tools.sym import h_lattice_sym_tab
import time

t0 = (time.clock(), time.time())


bas = 'lanl2dz'
ecp = 'lanl2dz'
temp = 0.005


mol = gto.Mole()
mol.atom = open('Cu2.xyz').read()
mol.basis = bas
mol.ecp = ecp
mol.charge = -2
mol.build(max_memory = 16000, verbose=4)

mf = rks_ao(mol,smear_sigma = temp)
mf.xc = 'pbe,pbe'
mf.max_cycle = 50
mf.scf(dm0=None)


natoms = mol.natm
impAtom = np.zeros([natoms], dtype=int)
for i in range(2):
    impAtom[i] = 1

ghost_frag = 1-impAtom
ghost_env = 1-ghost_frag

mol_frag = gto.Mole()
mol_frag.atom = tools.add_ghost(mol.atom, ghost_frag)
mol_frag.basis = bas
mol_frag.ecp = ecp
mol_frag.charge = 4
mol_frag.build(max_memory = 16000,verbose = 4)

mol_env = gto.Mole()
mol_env.atom = tools.add_ghost(mol.atom, ghost_env)
mol_env.basis =  bas
mol_env.ecp = ecp
mol_env.charge = -6
mol_env.build(max_memory = 16000,verbose = 4)

Ne_frag = 34
Ne_env = 48

boundary_atoms = None
boundary_atoms2 =None

umat = None
umat = np.load("umat.npy")

params = oep.OEPparams(algorithm = 'leastsq', opt_method = 'L-BFGS-B', diffP_tol=1e-3, outer_maxit = 20)
params.options['ftol'] = 1e-10
params.options['gtol'] = 1e-3
params.options['maxiter'] = 200
params.options['svd_thresh'] = 1e-2

theDMFET = dfet.DFET(mf, mol_frag, mol_env,Ne_frag,Ne_env,\
                     boundary_atoms=boundary_atoms, boundary_atoms2=boundary_atoms2,umat = umat,\
                     oep_params=params, smear_sigma=temp, ecw_method = 'hf',mf_method = mf.xc, plot_dens=True,\
                     scf_max_cycle = 200)

umat = theDMFET.embedding_potential()

t1 = tools.timer("total calc time", t0)
#INFO: ******************** input file end ********************


System: uname_result(system='Linux', node='tiger-h21c2n24', release='3.10.0-957.27.2.el7.x86_64', version='#1 SMP Tue Jul 30 11:12:20 EDT 2019', machine='x86_64', processor='x86_64')  Threads 40
Python 3.7.0 (default, Jun 28 2018, 13:15:42) 
[GCC 7.2.0]
numpy 1.16.4  scipy 1.4.0.dev0+0f78e0f
Date: Mon Sep  9 13:10:58 2019
PySCF version 1.5
PySCF path  /home/xingz/.local/lib/python3.7/site-packages/pyscf

[CONFIG] conf_file None
[INPUT] verbose = 4
[INPUT] num. atoms = 8
[INPUT] num. electrons = 48
[INPUT] charge = -6
[INPUT] spin (= nelec alpha-beta = 2S) = 0
[INPUT] symmetry False subgroup None
[INPUT] Mole.unit = angstrom
[INPUT]  1 GHOST-Cu  -0.441980000000   1.042360000000  -0.035730000000 AA   -0.835221152535   1.969774923202  -0.067519914431 Bohr
[INPUT]  2 GHOST-Cu   2.942440000000   1.248890000000   0.035730000000 AA    5.560405737965   2.360060059708   0.067519914431 Bohr
[INPUT]  3 Cl    -1.897990000000  -0.682570000000   0.075050000000 AA   -3.586681287163  -1.289870360844   0.141823945649 Bohr
[INPUT]  4 Cl    -2.090880000000   2.577820000000  -0.212080000000 AA   -3.951190559331   4.871373798426  -0.400773116498 Bohr
[INPUT]  5 Cl     1.158810000000   2.690810000000  -0.136080000000 AA    2.189833530407   5.084893953241  -0.257153931031 Bohr
[INPUT]  6 Cl     1.341650000000  -0.399560000000   0.136080000000 AA    2.535351055023  -0.755058970331   0.257153931031 Bohr
[INPUT]  7 Cl     4.398440000000   2.973820000000  -0.075050000000 AA    8.311846975332   5.619705343754  -0.141823945649 Bohr
[INPUT]  8 Cl     4.591340000000  -0.286580000000   0.212080000000 AA    8.676375144761  -0.541557712778   0.400773116498 Bohr

nuclear repulsion = 93.9042733852809
number of shells = 38
number of NR pGTOs = 162
number of NR cGTOs = 92
basis = lanl2dz
ecp = lanl2dz
CPU time:       601.87


******** <class 'pydmfet.dfet_ao.scf.EmbedSCF'> flags ********
method = EmbedSCF-RKS-RHF
initial guess = minao
damping factor = 0
level shift factor = 0
DIIS = <class 'pyscf.scf.diis.CDIIS'>
DIIS start cycle = 1
DIIS space = 8
SCF tol = 1e-09
SCF gradient tol = None
max. SCF cycles = 200
direct_scf = False
chkfile to save SCF result = /tmp/tmp0wu5e9p9
max_memory 16000 MB (current use 532 MB)
XC functionals = pbe,pbe
small_rho_cutoff = 1e-07
radial grids: 
    Treutler-Ahlrichs (JCP 102, 346 (M4)) radial grids
    
becke partition: Becke, JCP, 88, 2547 (1988)
pruning grids: <function nwchem_prune at 0x2b3f6e1d1400>
grids dens level: 3
symmetrized grids: False
atomic radii adjust function: <function treutler_atomic_radii_adjust at 0x2b3f6e1d1378>
Set gradient conv threshold to 3.16228e-05
tot grids = 120648
init E= -388.440476292012
HOMO: 0.14864751512476707 LUMO: 0.18495856991182222
mo_energy:
[-2.71   -2.6689 -1.2978 -1.2842 -1.2805 -1.2723 -1.2713 -1.2617 -0.2048
 -0.1895 -0.0757 -0.0136  0.0132  0.0284  0.047   0.0667  0.1486  0.185
  0.1877  0.198   0.204   0.282 ]
e_fermi =  0.16547402020552382
[2.    2.    2.    2.    2.    2.    2.    2.    2.    2.    2.    2.
 2.    2.    2.    2.    1.933 0.04  0.023 0.003]
entropy correction =  -0.0032220019903579024
cycle= 1 E= -328.757083300385  delta_E= 59.7  |g|= 10.8  |ddm|= 8.03
HOMO: -8.397986508775556 LUMO: -8.322348762252377
mo_energy:
[-12.787 -12.743 -11.119 -11.095 -11.093 -11.089 -11.064 -11.05   -8.439
  -8.436  -8.426  -8.425  -8.421  -8.419  -8.418  -8.414  -8.398  -8.322
  -3.12   -3.079  -2.51   -2.316]
e_fermi =  -8.359951791371522
[2.000e+00 2.000e+00 2.000e+00 2.000e+00 2.000e+00 2.000e+00 2.000e+00
 2.000e+00 2.000e+00 2.000e+00 2.000e+00 2.000e+00 2.000e+00 2.000e+00
 2.000e+00 2.000e+00 1.999e+00 1.083e-03]
entropy correction =  -9.45150018955668e-05
cycle= 2 E= -385.956052190559  delta_E= -57.2  |g|= 4.45  |ddm|= 8.39
HOMO: -2.2039916758283455 LUMO: -2.194245295537722
mo_energy:
[-6.225 -6.174 -4.776 -4.764 -4.735 -4.733 -4.682 -4.651 -2.253 -2.243
 -2.23  -2.229 -2.227 -2.218 -2.206 -2.205 -2.204 -2.194 -1.55  -1.527
 -1.146 -1.096]
e_fermi =  -2.195687811448488
[2.    2.    2.    2.    2.    2.    2.    2.    2.    2.    1.998 1.997
 1.996 1.978 1.777 1.716 1.681 0.857]
entropy correction =  -0.019731194060966812
cycle= 3 E= -389.739891014627  delta_E= -3.78  |g|= 1.73  |ddm|= 3.55
HOMO: -1.1328863750316325 LUMO: -1.1305146240370156
mo_energy:
[-6.64  -5.182 -5.13  -5.127 -4.941 -3.499 -3.493 -3.473 -2.648 -2.637
 -2.63  -2.569 -2.545 -1.601 -1.208 -1.136 -1.133 -1.131 -1.126 -1.112
 -1.079 -1.036]
e_fermi =  -1.1313883527288022
[2.    2.    2.    2.    2.    2.    2.    2.    2.    2.    2.    2.
 2.    2.    2.    1.398 1.149 0.913 0.501 0.04 ]
entropy correction =  -0.026431710054316573
cycle= 4 E= -376.252082901872  delta_E= 13.5  |g|= 8.62  |ddm|= 4.22
HOMO: -1.4847905156893817 LUMO: -1.4837662647174452
mo_energy:
[-6.119 -5.398 -4.675 -4.617 -4.612 -3.941 -3.935 -3.919 -2.168 -2.156
 -2.15  -2.088 -2.071 -1.506 -1.501 -1.495 -1.485 -1.484 -1.433 -1.238
 -0.992 -0.985]
e_fermi =  -1.4830749524383835
[2.    2.    2.    2.    2.    2.    2.    2.    2.    2.    2.    2.
 2.    1.98  1.944 1.838 1.17  1.069]
entropy correction =  -0.01836522019540054
cycle= 5 E= -389.135781525329  delta_E= -12.9  |g|= 2.63  |ddm|= 3.41
HOMO: -1.5775369810282502 LUMO: -1.5773591499137416
mo_energy:
[-5.762 -5.502 -4.321 -4.27  -4.269 -4.056 -4.044 -4.    -1.848 -1.837
 -1.833 -1.777 -1.767 -1.585 -1.582 -1.579 -1.578 -1.577 -1.356 -1.258
 -0.962 -0.955]
e_fermi =  -1.572797388073276
[2.    2.    2.    2.    2.    2.    2.    2.    2.    2.    2.    2.
 2.    1.846 1.745 1.541 1.441 1.427]
entropy correction =  -0.023833418905159977
cycle= 6 E= -389.717502144058  delta_E= -0.582  |g|= 1.84  |ddm|= 1.07
HOMO: -1.6560977683287699 LUMO: -1.6488618672150985
mo_energy:
[-5.708 -5.615 -4.256 -4.239 -4.199 -4.165 -4.137 -4.133 -1.795 -1.791
 -1.763 -1.724 -1.719 -1.709 -1.7   -1.697 -1.656 -1.649 -1.33  -1.291
 -0.96  -0.95 ]
e_fermi =  -1.652477403588791
[2.    2.    2.    2.    2.    2.    2.    2.    2.    2.    2.    2.
 2.    2.    2.    2.    1.347 0.653]
entropy correction =  -0.01265692176943309
cycle= 7 E= -389.821587866228  delta_E= -0.104  |g|= 1.58  |ddm|=  1.6
HOMO: -1.659341068717713 LUMO: -1.6544672327183234
mo_energy:
[-5.662 -5.602 -4.234 -4.223 -4.151 -4.137 -4.127 -4.088 -1.755 -1.743
 -1.701 -1.698 -1.694 -1.693 -1.679 -1.678 -1.659 -1.654 -1.314 -1.29
 -0.957 -0.948]
e_fermi =  -1.6566050948862971
[2.    2.    2.    2.    2.    2.    2.    2.    2.    2.    2.    2.
 1.999 1.999 1.976 1.971 1.267 0.789]
entropy correction =  -0.01483097197609542
cycle= 8 E= -389.883994495263  delta_E= -0.0624  |g|= 1.52  |ddm|= 1.81
HOMO: -1.67591505196557 LUMO: -1.6564776014239775
mo_energy:
[-5.655 -5.613 -4.214 -4.201 -4.18  -4.163 -4.15  -4.063 -1.734 -1.723
 -1.711 -1.711 -1.702 -1.693 -1.686 -1.678 -1.676 -1.656 -1.314 -1.291
 -0.958 -0.949]
e_fermi =  -1.6645228221215347
[2.    2.    2.    2.    2.    2.    2.    2.    2.    2.    2.    2.
 1.999 1.994 1.976 1.885 1.814 0.333]
entropy correction =  -0.01074450846218308
cycle= 9 E= -389.863164220027  delta_E= 0.0208  |g|= 1.45  |ddm|= 1.89
HOMO: -1.6887808016186332 LUMO: -1.682053714334056
mo_energy:
[-5.673 -5.621 -4.225 -4.215 -4.174 -4.161 -4.146 -4.132 -1.741 -1.73
 -1.721 -1.721 -1.71  -1.702 -1.702 -1.695 -1.689 -1.682 -1.319 -1.294
 -0.96  -0.95 ]
e_fermi =  -1.6837191460773155
[2.    2.    2.    2.    2.    2.    2.    2.    2.    2.    1.999 1.999
 1.99  1.953 1.947 1.811 1.467 0.835]
entropy correction =  -0.018489507706578957
cycle= 10 E= -389.892040893233  delta_E= -0.0289  |g|=  1.5  |ddm|= 1.83
HOMO: -1.6782391187245966 LUMO: -1.6743013693388569
mo_energy:
[-5.686 -5.615 -4.236 -4.228 -4.169 -4.161 -4.15  -4.127 -1.751 -1.74
 -1.737 -1.736 -1.727 -1.695 -1.694 -1.683 -1.678 -1.674 -1.321 -1.292
 -0.96  -0.95 ]
e_fermi =  -1.6744266108911023
[2.    2.    2.    2.    2.    2.    2.    2.    2.    2.    2.    2.
 2.    1.969 1.962 1.718 1.364 0.987]
entropy correction =  -0.019002461788933313
cycle= 11 E= -389.8494326738  delta_E= 0.0426  |g|= 1.56  |ddm|= 0.21
HOMO: -1.6371183759784604 LUMO: -1.6303448156838274
mo_energy:
[-5.649 -5.582 -4.183 -4.179 -4.168 -4.156 -4.095 -4.085 -1.715 -1.714
 -1.714 -1.701 -1.692 -1.688 -1.687 -1.648 -1.637 -1.63  -1.314 -1.288
 -0.954 -0.947]
e_fermi =  -1.6331621229418867
[2.    2.    2.    2.    2.    2.    2.    2.    2.    2.    2.    2.
 2.    2.    2.    1.898 1.376 0.725]
entropy correction =  -0.014770281403114413
cycle= 12 E= -389.7980558117  delta_E= 0.0514  |g|=  1.6  |ddm|= 1.03
HOMO: -1.678796091834752 LUMO: -1.6732955624877173
mo_energy:
[-5.659 -5.613 -4.193 -4.192 -4.183 -4.152 -4.139 -4.125 -1.713 -1.713
 -1.711 -1.708 -1.708 -1.707 -1.698 -1.682 -1.679 -1.673 -1.314 -1.293
 -0.957 -0.948]
e_fermi =  -1.6740491772729402
[2.    2.    2.    2.    2.    2.    2.    2.    1.999 1.999 1.999 1.998
 1.998 1.997 1.985 1.658 1.442 0.925]
entropy correction =  -0.01823855776647381
cycle= 13 E= -389.871507872584  delta_E= -0.0735  |g|= 1.51  |ddm|= 0.285
HOMO: -1.6643373071446736 LUMO: -1.6601534021486017
mo_energy:
[-5.668 -5.606 -4.205 -4.199 -4.185 -4.165 -4.129 -4.108 -1.726 -1.726
 -1.724 -1.72  -1.71  -1.699 -1.697 -1.675 -1.664 -1.66  -1.316 -1.292
 -0.957 -0.949]
e_fermi =  -1.6615623009548253
[2.    2.    2.    2.    2.    2.    2.    2.    2.    2.    2.    2.
 2.    1.999 1.998 1.872 1.271 0.86 ]
entropy correction =  -0.015888921405661744
cycle= 14 E= -389.794135670253  delta_E= 0.0774  |g|= 1.58  |ddm|= 0.285
HOMO: -1.6733789537204289 LUMO: -1.6646880215378699
mo_energy:
[-5.685 -5.61  -4.254 -4.218 -4.155 -4.15  -4.149 -4.128 -1.76  -1.747
 -1.742 -1.721 -1.716 -1.688 -1.688 -1.687 -1.673 -1.665 -1.322 -1.288
 -0.959 -0.95 ]
e_fermi =  -1.6682930301307557
[2.    2.    2.    2.    2.    2.    2.    2.    2.    2.    2.    2.
 2.    1.964 1.96  1.953 1.469 0.654]
entropy correction =  -0.015116471298250698
cycle= 15 E= -389.852841372421  delta_E= -0.0587  |g|= 1.54  |ddm|= 1.74
HOMO: -1.6763068287940972 LUMO: -1.6673958421657709
mo_energy:
[-5.684 -5.613 -4.249 -4.217 -4.156 -4.153 -4.152 -4.132 -1.756 -1.745
 -1.739 -1.721 -1.716 -1.692 -1.691 -1.69  -1.676 -1.667 -1.321 -1.289
 -0.959 -0.95 ]
e_fermi =  -1.6711432694257722
[2.    2.    2.    2.    2.    2.    2.    2.    2.    2.    2.    2.
 2.    1.967 1.961 1.956 1.475 0.642]
entropy correction =  -0.014917451055369067
cycle= 16 E= -389.855238571783  delta_E= -0.0024  |g|= 1.53  |ddm|= 0.0147
HOMO: -1.6740869153578264 LUMO: -1.6658145803018036
mo_energy:
[-5.686 -5.612 -4.242 -4.225 -4.162 -4.151 -4.15  -4.133 -1.754 -1.744
 -1.74  -1.729 -1.724 -1.693 -1.691 -1.69  -1.674 -1.666 -1.322 -1.29
 -0.959 -0.95 ]
e_fermi =  -1.6694839768254521
[2.    2.    2.    2.    2.    2.    2.    2.    2.    2.    2.    2.
 2.    1.98  1.971 1.97  1.43  0.649]
entropy correction =  -0.01437430732324093
cycle= 17 E= -389.84702166045  delta_E= 0.00822  |g|= 1.54  |ddm|= 0.0703
HOMO: -1.6689063534971964 LUMO: -1.6653114011965626
mo_energy:
[-5.693 -5.602 -4.247 -4.233 -4.17  -4.156 -4.152 -4.093 -1.76  -1.75
 -1.746 -1.737 -1.732 -1.681 -1.672 -1.671 -1.669 -1.665 -1.325 -1.286
 -0.96  -0.95 ]
e_fermi =  -1.6633635081845497
[2.    2.    2.    2.    2.    2.    2.    2.    2.    2.    2.    2.
 2.    1.947 1.707 1.65  1.504 1.192]
entropy correction =  -0.022377039493327987
cycle= 18 E= -389.827657311723  delta_E= 0.0194  |g|= 1.58  |ddm|= 1.31
HOMO: -1.6572905455646434 LUMO: -1.6525073183067935
mo_energy:
[-5.648 -5.601 -4.208 -4.159 -4.155 -4.136 -4.132 -4.13  -1.715 -1.715
 -1.707 -1.698 -1.695 -1.694 -1.687 -1.685 -1.657 -1.653 -1.316 -1.294
 -0.959 -0.948]
e_fermi =  -1.6548458694498964
[2.    2.    2.    2.    2.    2.    2.    2.    2.    2.    2.    2.
 1.999 1.999 1.997 1.995 1.24  0.77 ]
entropy correction =  -0.013685175040461206
cycle= 19 E= -389.877106884323  delta_E= -0.0494  |g|=  1.5  |ddm|= 1.34
HOMO: -1.6640580034296246 LUMO: -1.6573560673553436
mo_energy:
[-5.665 -5.603 -4.217 -4.187 -4.176 -4.155 -4.122 -4.117 -1.74  -1.731
 -1.727 -1.703 -1.699 -1.698 -1.696 -1.665 -1.664 -1.657 -1.32  -1.291
 -0.959 -0.948]
e_fermi =  -1.6584062325923774
[2.    2.    2.    2.    2.    2.    2.    2.    2.    2.    2.    2.
 1.999 1.999 1.999 1.595 1.512 0.895]
entropy correction =  -0.01758163796963745
cycle= 20 E= -389.834759074575  delta_E= 0.0423  |g|= 1.55  |ddm|= 1.68
HOMO: -1.6760102393757879 LUMO: -1.6695655654268575
mo_energy:
[-5.66  -5.607 -4.208 -4.18  -4.161 -4.152 -4.146 -4.126 -1.734 -1.725
 -1.721 -1.697 -1.693 -1.689 -1.687 -1.687 -1.676 -1.67  -1.318 -1.292
 -0.958 -0.948]
e_fermi =  -1.6713964862921653
[2.    2.    2.    2.    2.    2.    2.    2.    2.    2.    2.    1.988
 1.975 1.946 1.923 1.917 1.431 0.819]
entropy correction =  -0.018365116477394097
cycle= 21 E= -389.931137794561  delta_E= -0.0964  |g|= 1.46  |ddm|= 0.968
HOMO: -1.6769985712248543 LUMO: -1.670453212105597
mo_energy:
[-5.66  -5.607 -4.208 -4.18  -4.161 -4.152 -4.146 -4.124 -1.734 -1.725
 -1.721 -1.697 -1.693 -1.688 -1.687 -1.686 -1.677 -1.67  -1.318 -1.292
 -0.958 -0.948]
e_fermi =  -1.6718955593882046
[2.    2.    2.    2.    2.    2.    2.    2.    2.    2.    2.    1.986
 1.971 1.923 1.906 1.887 1.47  0.857]
entropy correction =  -0.01948946469799124
cycle= 22 E= -389.945221849231  delta_E= -0.0141  |g|= 1.45  |ddm|= 0.0651
HOMO: -1.6551511636716796 LUMO: -1.6546502710781301
mo_energy:
[-5.661 -5.596 -4.208 -4.187 -4.157 -4.156 -4.117 -4.115 -1.734 -1.727
 -1.722 -1.704 -1.7   -1.688 -1.687 -1.664 -1.655 -1.655 -1.318 -1.289
 -0.957 -0.948]
e_fermi =  -1.653709716678843
[2.    2.    2.    2.    2.    2.    2.    2.    2.    2.    2.    2.
 2.    1.998 1.997 1.768 1.143 1.094]
entropy correction =  -0.01750410209801989
cycle= 23 E= -389.845956384016  delta_E= 0.0993  |g|= 1.56  |ddm|= 0.65
HOMO: -1.6638417810772614 LUMO: -1.6579911159076384
mo_energy:
[-5.661 -5.601 -4.206 -4.186 -4.161 -4.142 -4.137 -4.127 -1.733 -1.726
 -1.722 -1.704 -1.699 -1.688 -1.684 -1.682 -1.664 -1.658 -1.318 -1.291
 -0.958 -0.948]
e_fermi =  -1.6606136047976148
[2.    2.    2.    2.    2.    2.    2.    2.    2.    2.    2.    2.
 1.999 1.992 1.981 1.972 1.312 0.744]
entropy correction =  -0.014612383910650823
cycle= 24 E= -389.851225145783  delta_E= -0.00527  |g|= 1.54  |ddm|= 0.674
HOMO: -1.6613629752274846 LUMO: -1.655766012711965
mo_energy:
[-5.663 -5.603 -4.201 -4.189 -4.165 -4.147 -4.136 -4.129 -1.731 -1.726
 -1.722 -1.708 -1.702 -1.694 -1.687 -1.685 -1.661 -1.656 -1.318 -1.291
 -0.958 -0.948]
e_fermi =  -1.6584680270801018
[2.    2.    2.    2.    2.    2.    2.    2.    2.    2.    2.    2.
 2.    1.998 1.994 1.991 1.282 0.736]
entropy correction =  -0.013710478419382364
cycle= 25 E= -389.84451391158  delta_E= 0.00671  |g|= 1.54  |ddm|= 0.396
HOMO: -1.6199368003302506 LUMO: -1.6148058448109996
mo_energy:
[-5.624 -5.569 -4.16  -4.157 -4.137 -4.118 -4.095 -4.091 -1.69  -1.69
 -1.687 -1.684 -1.681 -1.674 -1.669 -1.667 -1.62  -1.615 -1.312 -1.288
 -0.953 -0.945]
e_fermi =  -1.6173702633755576
[2.    2.    2.    2.    2.    2.    2.    2.    2.    2.    2.    2.
 2.    2.    2.    2.    1.251 0.749]
entropy correction =  -0.013237174089765356
cycle= 26 E= -389.84999088944  delta_E= -0.00548  |g|= 1.56  |ddm|= 0.288
HOMO: -1.6897951279801193 LUMO: -1.6829269638387336
mo_energy:
[-5.67  -5.626 -4.22  -4.21  -4.172 -4.165 -4.163 -4.124 -1.735 -1.725
 -1.717 -1.713 -1.711 -1.71  -1.71  -1.7   -1.69  -1.683 -1.316 -1.295
 -0.959 -0.949]
e_fermi =  -1.6854654841096486
[2.    2.    2.    2.    2.    2.    2.    2.    2.    1.999 1.997 1.992
 1.987 1.986 1.984 1.897 1.408 0.751]
entropy correction =  -0.0164492811373044
cycle= 27 E= -390.054916080904  delta_E= -0.205  |g|= 1.33  |ddm|= 0.237
HOMO: -1.5211565914670673 LUMO: -1.5179502171406973
mo_energy:
[-5.761 -5.456 -4.319 -4.315 -4.226 -4.005 -3.983 -3.98  -1.832 -1.818
 -1.806 -1.802 -1.793 -1.573 -1.559 -1.558 -1.521 -1.518 -1.345 -1.256
 -0.959 -0.952]
e_fermi =  -1.5195448018808135
[2.    2.    2.    2.    2.    2.    2.    2.    2.    2.    2.    2.
 2.    2.    1.999 1.999 1.16  0.842]
entropy correction =  -0.013683723943052275
cycle= 28 E= -389.637564986954  delta_E= 0.417  |g|= 2.01  |ddm|= 1.79
HOMO: -1.6538980416795086 LUMO: -1.6467271922959652
mo_energy:
[-5.706 -5.588 -4.235 -4.234 -4.223 -4.144 -4.143 -4.069 -1.773 -1.77
 -1.766 -1.747 -1.739 -1.672 -1.664 -1.654 -1.654 -1.647 -1.331 -1.281
 -0.96  -0.95 ]
e_fermi =  -1.6474560577464907
[2.    2.    2.    2.    2.    2.    2.    2.    2.    2.    2.    2.
 2.    1.986 1.933 1.586 1.568 0.927]
entropy correction =  -0.01910412720732272
cycle= 29 E= -389.779597268194  delta_E= -0.142  |g|= 1.62  |ddm|=  1.6
HOMO: -1.6736497607869538 LUMO: -1.6659084511279696
mo_energy:
[-5.683 -5.609 -4.226 -4.204 -4.187 -4.15  -4.149 -4.129 -1.745 -1.745
 -1.737 -1.729 -1.722 -1.69  -1.687 -1.687 -1.674 -1.666 -1.323 -1.29
 -0.959 -0.949]
e_fermi =  -1.669002189443832
[2.    2.    2.    2.    2.    2.    2.    2.    2.    2.    2.    2.
 2.    1.968 1.95  1.949 1.434 0.7  ]
entropy correction =  -0.015632599703916773
cycle= 30 E= -389.850720934205  delta_E= -0.0711  |g|= 1.55  |ddm|= 1.55
HOMO: -1.6260515249483098 LUMO: -1.6204299742627675
mo_energy:
[-5.703 -5.572 -4.28  -4.224 -4.18  -4.111 -4.102 -4.098 -1.778 -1.769
 -1.76  -1.74  -1.738 -1.666 -1.658 -1.657 -1.626 -1.62  -1.33  -1.281
 -0.961 -0.95 ]
e_fermi =  -1.6232156651545186
[2.    2.    2.    2.    2.    2.    2.    2.    2.    2.    2.    2.
 2.    2.    1.998 1.998 1.276 0.728]
entropy correction =  -0.013288449684622693
cycle= 31 E= -389.799197810301  delta_E= 0.0515  |g|= 1.65  |ddm|= 0.201
HOMO: -1.6198290112908331 LUMO: -1.6143035388739495
mo_energy:
[-5.699 -5.565 -4.262 -4.258 -4.152 -4.103 -4.095 -4.091 -1.781 -1.769
 -1.744 -1.743 -1.728 -1.659 -1.652 -1.651 -1.62  -1.614 -1.328 -1.28
 -0.959 -0.95 ]
e_fermi =  -1.6170406822029697
[2.    2.    2.    2.    2.    2.    2.    2.    2.    2.    2.    2.
 2.    2.    1.998 1.998 1.272 0.733]
entropy correction =  -0.013316855637923477
cycle= 32 E= -389.796722687082  delta_E= 0.00248  |g|= 1.66  |ddm|= 0.0408
HOMO: -1.6118404763194891 LUMO: -1.6065960958444725
mo_energy:
[-5.712 -5.556 -4.275 -4.269 -4.167 -4.096 -4.084 -4.081 -1.792 -1.78
 -1.756 -1.755 -1.741 -1.65  -1.643 -1.641 -1.612 -1.607 -1.332 -1.277
 -0.96  -0.951]
e_fermi =  -1.6091857032115378
[2.    2.    2.    2.    2.    2.    2.    2.    2.    2.    2.    2.
 2.    1.999 1.998 1.997 1.259 0.747]
entropy correction =  -0.013433190435356082
cycle= 33 E= -389.779644100907  delta_E= 0.0171  |g|= 1.69  |ddm|= 0.119
HOMO: -1.5940215716220048 LUMO: -1.5895135380743974
mo_energy:
[-5.727 -5.537 -4.291 -4.282 -4.185 -4.081 -4.064 -4.061 -1.805 -1.793
 -1.772 -1.77  -1.757 -1.634 -1.626 -1.625 -1.594 -1.59  -1.338 -1.271
 -0.961 -0.953]
e_fermi =  -1.591740501792768
[2.    2.    2.    2.    2.    2.    2.    2.    2.    2.    2.    2.
 2.    2.    1.998 1.997 1.224 0.781]
entropy correction =  -0.013569838630999765
cycle= 34 E= -389.754946881656  delta_E= 0.0247  |g|= 1.74  |ddm|= 0.0898
HOMO: -1.5259180752514299 LUMO: -1.5238290578004368
mo_energy:
[-5.729 -5.471 -4.297 -4.282 -4.186 -4.033 -3.991 -3.988 -1.81  -1.797
 -1.778 -1.772 -1.761 -1.588 -1.574 -1.573 -1.526 -1.524 -1.344 -1.256
 -0.959 -0.953]
e_fermi =  -1.5248722883370962
[2.    2.    2.    2.    2.    2.    2.    2.    2.    2.    2.    2.
 2.    2.    2.    2.    1.104 0.896]
entropy correction =  -0.013768032378759515
cycle= 35 E= -389.703314264777  delta_E= 0.0516  |g|= 1.88  |ddm|= 0.175
HOMO: -1.254067615393366 LUMO: -1.2503947457426652
mo_energy:
[-6.226 -5.14  -4.802 -4.793 -4.633 -3.68  -3.679 -3.661 -2.289 -2.265
 -2.218 -2.215 -2.186 -1.509 -1.269 -1.255 -1.254 -1.25  -1.242 -1.139
 -1.039 -1.007]
e_fermi =  -1.250409380547311
[2.    2.    2.    2.    2.    2.    2.    2.    2.    2.    2.    2.
 2.    2.    1.951 1.399 1.35  0.999 0.301]
entropy correction =  -0.02474580093510287
cycle= 36 E= -383.568375020263  delta_E= 6.13  |g|= 5.33  |ddm|= 3.39
HOMO: -1.5813271994755826 LUMO: -1.5803278627311785
mo_energy:
[-5.934 -5.507 -4.521 -4.455 -4.385 -4.056 -4.051 -4.006 -2.009 -1.991
 -1.968 -1.92  -1.916 -1.586 -1.585 -1.583 -1.581 -1.58  -1.386 -1.256
 -0.978 -0.968]
e_fermi =  -1.5758194734718414
[2.    2.    2.    2.    2.    2.    2.    2.    2.    2.    2.    2.
 2.    1.765 1.715 1.597 1.501 1.423]
entropy correction =  -0.024371190776629803
cycle= 37 E= -389.543112641404  delta_E= -5.97  |g|=  2.1  |ddm|=  2.7
HOMO: -1.6493682445125175 LUMO: -1.6429350549998873
mo_energy:
[-5.67  -5.583 -4.227 -4.214 -4.142 -4.127 -4.124 -4.098 -1.745 -1.736
 -1.725 -1.719 -1.713 -1.666 -1.662 -1.661 -1.649 -1.643 -1.323 -1.284
 -0.958 -0.949]
e_fermi =  -1.6452106996267164
[2.    2.    2.    2.    2.    2.    2.    2.    2.    2.    2.    2.
 2.    1.97  1.937 1.924 1.393 0.776]
entropy correction =  -0.016620020330299225
cycle= 38 E= -389.841542130135  delta_E= -0.298  |g|= 1.57  |ddm|=    1
HOMO: -1.6599739543641923 LUMO: -1.6508203860708595
mo_energy:
[-5.674 -5.594 -4.225 -4.219 -4.158 -4.154 -4.15  -4.069 -1.742 -1.734
 -1.726 -1.721 -1.717 -1.687 -1.679 -1.662 -1.66  -1.651 -1.318 -1.289
 -0.959 -0.949]
e_fermi =  -1.6535028763153554
[2.    2.    2.    2.    2.    2.    2.    2.    2.    2.    2.    2.
 2.    1.998 1.989 1.706 1.57  0.738]
entropy correction =  -0.016406162322749922
cycle= 39 E= -389.783520514027  delta_E= 0.058  |g|=  1.6  |ddm|=  1.7
HOMO: -1.680223755845589 LUMO: -1.6736520091441784
mo_energy:
[-5.659 -5.614 -4.201 -4.19  -4.159 -4.156 -4.15  -4.135 -1.715 -1.71
 -1.708 -1.707 -1.704 -1.703 -1.702 -1.702 -1.68  -1.674 -1.316 -1.294
 -0.958 -0.948]
e_fermi =  -1.6766325589368045
[2.    2.    2.    2.    2.    2.    2.    2.    1.999 1.997 1.997 1.995
 1.991 1.99  1.989 1.987 1.344 0.71 ]
entropy correction =  -0.014605205024403288
cycle= 40 E= -389.911023449268  delta_E= -0.128  |g|= 1.48  |ddm|=  1.7
HOMO: -1.6879442049796862 LUMO: -1.6807887704076574
mo_energy:
[-5.659 -5.617 -4.199 -4.186 -4.165 -4.163 -4.156 -4.128 -1.714 -1.711
 -1.71  -1.71  -1.705 -1.701 -1.697 -1.696 -1.688 -1.681 -1.316 -1.294
 -0.958 -0.948]
e_fermi =  -1.6825324028595545
[2.    2.    2.    2.    2.    2.    2.    2.    1.996 1.993 1.992 1.992
 1.979 1.952 1.89  1.884 1.494 0.827]
entropy correction =  -0.01937247462857952
cycle= 41 E= -390.291742082396  delta_E= -0.381  |g|= 1.05  |ddm|= 0.368
HOMO: -1.6353458645974717 LUMO: -1.6351088771607674
mo_energy:
[-5.652 -5.566 -4.196 -4.188 -4.148 -4.119 -4.117 -4.064 -1.714 -1.713
 -1.712 -1.712 -1.703 -1.657 -1.652 -1.644 -1.635 -1.635 -1.316 -1.284
 -0.956 -0.947]
e_fermi =  -1.6337074534456673
[2.    2.    2.    2.    2.    2.    2.    2.    2.    2.    2.    2.
 2.    1.98  1.954 1.765 1.162 1.139]
entropy correction =  -0.018920719016964495
cycle= 42 E= -389.815042604588  delta_E= 0.477  |g|= 1.62  |ddm|= 1.15
HOMO: -1.6318743019598658 LUMO: -1.6284588565375957
mo_energy:
[-5.64  -5.556 -4.182 -4.174 -4.14  -4.112 -4.112 -4.049 -1.707 -1.705
 -1.703 -1.698 -1.69  -1.648 -1.642 -1.635 -1.632 -1.628 -1.315 -1.283
 -0.955 -0.946]
e_fermi =  -1.627451519112874
[2.    2.    2.    2.    2.    2.    2.    2.    2.    2.    2.    2.
 2.    1.966 1.901 1.618 1.416 1.1  ]
entropy correction =  -0.020644646497088002
cycle= 43 E= -389.814967883304  delta_E= 7.47e-05  |g|= 1.62  |ddm|= 0.503
HOMO: -1.6770330248164929 LUMO: -1.6696428837519874
mo_energy:
[-5.637 -5.594 -4.181 -4.157 -4.149 -4.146 -4.128 -4.107 -1.697 -1.696
 -1.689 -1.686 -1.681 -1.678 -1.678 -1.678 -1.677 -1.67  -1.314 -1.29
 -0.956 -0.946]
e_fermi =  -1.6678140789127103
[2.    2.    2.    2.    2.    2.    2.    2.    1.994 1.992 1.973 1.952
 1.862 1.788 1.779 1.751 1.727 1.181]
entropy correction =  -0.026161600676374772
cycle= 44 E= -390.234811836354  delta_E= -0.42  |g|= 1.14  |ddm|= 1.26
HOMO: -1.657685215540253 LUMO: -1.6534031636333208
mo_energy:
[-5.645 -5.585 -4.181 -4.177 -4.148 -4.143 -4.142 -4.074 -1.713 -1.709
 -1.707 -1.693 -1.686 -1.676 -1.668 -1.66  -1.658 -1.653 -1.315 -1.287
 -0.956 -0.946]
e_fermi =  -1.652927327866695
[2.    2.    2.    2.    2.    2.    2.    2.    2.    2.    2.    1.999
 1.998 1.981 1.909 1.623 1.443 1.048]
entropy correction =  -0.020194971566268375
cycle= 45 E= -389.834855471475  delta_E=  0.4  |g|= 1.55  |ddm|= 1.28
HOMO: -1.6711278073273548 LUMO: -1.6697555468622083
mo_energy:
[-5.635 -5.593 -4.173 -4.162 -4.155 -4.142 -4.133 -4.095 -1.699 -1.694
 -1.692 -1.686 -1.68  -1.677 -1.675 -1.674 -1.671 -1.67  -1.312 -1.29
 -0.955 -0.946]
e_fermi =  -1.6654333608298502
[2.    2.    2.    2.    2.    2.    2.    2.    1.998 1.993 1.99  1.97
 1.888 1.815 1.753 1.67  1.515 1.407]
entropy correction =  -0.02646695151371603
cycle= 46 E= -390.632212263031  delta_E= -0.797  |g|= 0.365  |ddm|= 0.72
HOMO: -1.6594137811950147 LUMO: -1.6528055929311771
mo_energy:
[-5.633 -5.585 -4.179 -4.168 -4.136 -4.129 -4.117 -4.103 -1.697 -1.691
 -1.686 -1.684 -1.683 -1.678 -1.675 -1.672 -1.659 -1.653 -1.312 -1.289
 -0.955 -0.946]
e_fermi =  -1.6552679337965595
[2.    2.    2.    2.    2.    2.    2.    2.    1.999 1.998 1.996 1.993
 1.992 1.978 1.962 1.93  1.392 0.759]
entropy correction =  -0.016560518203217925
cycle= 47 E= -389.903372690703  delta_E= 0.729  |g|= 1.49  |ddm|= 1.29
HOMO: -1.6605058645183697 LUMO: -1.6536624624151728
mo_energy:
[-5.633 -5.585 -4.179 -4.167 -4.135 -4.13  -4.117 -4.104 -1.696 -1.69
 -1.686 -1.683 -1.682 -1.678 -1.675 -1.673 -1.661 -1.654 -1.312 -1.289
 -0.955 -0.946]
e_fermi =  -1.656122336353779
[2.    2.    2.    2.    2.    2.    2.    2.    1.999 1.998 1.995 1.991
 1.989 1.974 1.954 1.929 1.412 0.759]
entropy correction =  -0.016940575987687324
cycle= 48 E= -389.91774896979  delta_E= -0.0144  |g|= 1.48  |ddm|= 0.0702
HOMO: -1.6595865184909555 LUMO: -1.653457667329327
mo_energy:
[-5.637 -5.588 -4.185 -4.174 -4.141 -4.127 -4.119 -4.106 -1.702 -1.696
 -1.69  -1.687 -1.686 -1.681 -1.679 -1.673 -1.66  -1.653 -1.313 -1.289
 -0.956 -0.946]
e_fermi =  -1.6559195846727126
[2.    2.    2.    2.    2.    2.    2.    2.    2.    1.999 1.998 1.996
 1.995 1.988 1.98  1.935 1.351 0.759]
entropy correction =  -0.015755622342564
cycle= 49 E= -389.882949099884  delta_E= 0.0348  |g|= 1.51  |ddm|= 0.17
HOMO: -1.661931155084056 LUMO: -1.6554794469184273
mo_energy:
[-5.639 -5.593 -4.187 -4.176 -4.146 -4.131 -4.122 -4.109 -1.704 -1.698
 -1.69  -1.689 -1.687 -1.685 -1.684 -1.68  -1.662 -1.655 -1.313 -1.29
 -0.956 -0.946]
e_fermi =  -1.6583382982525117
[2.    2.    2.    2.    2.    2.    2.    2.    2.    1.999 1.996 1.995
 1.993 1.99  1.989 1.971 1.345 0.722]
entropy correction =  -0.014853546647165315
cycle= 50 E= -389.899223042856  delta_E= -0.0163  |g|= 1.48  |ddm|= 0.0682
HOMO: -1.6581300590989112 LUMO: -1.6517731984210489
mo_energy:
[-5.635 -5.59  -4.183 -4.172 -4.145 -4.13  -4.118 -4.103 -1.701 -1.695
 -1.69  -1.685 -1.683 -1.682 -1.681 -1.679 -1.658 -1.652 -1.312 -1.29
 -0.956 -0.946]
e_fermi =  -1.6546822824579142
[2.    2.    2.    2.    2.    2.    2.    2.    2.    1.999 1.998 1.995
 1.993 1.992 1.99  1.984 1.332 0.717]
entropy correction =  -0.014458189237581107
cycle= 51 E= -389.911423303383  delta_E= -0.0122  |g|= 1.47  |ddm|= 0.0768
HOMO: -1.666986830151461 LUMO: -1.662183309225399
mo_energy:
[-5.631 -5.59  -4.176 -4.159 -4.148 -4.139 -4.125 -4.091 -1.696 -1.691
 -1.689 -1.687 -1.683 -1.673 -1.67  -1.669 -1.667 -1.662 -1.312 -1.29
 -0.956 -0.946]
e_fermi =  -1.6603916631925393
[2.    2.    2.    2.    2.    2.    2.    2.    1.998 1.996 1.994 1.989
 1.98  1.852 1.761 1.675 1.578 1.177]
entropy correction =  -0.02398727105530355
cycle= 52 E= -390.650660790174  delta_E= -0.739  |g|= 0.243  |ddm|= 0.667
HOMO: -1.6689611264177193 LUMO: -1.6617274259128962
mo_energy:
[-5.626 -5.584 -4.167 -4.154 -4.139 -4.134 -4.116 -4.1   -1.683 -1.683
 -1.681 -1.679 -1.673 -1.673 -1.673 -1.671 -1.669 -1.662 -1.311 -1.289
 -0.955 -0.946]
e_fermi =  -1.6604931990578617
[2.    2.    2.    2.    2.    2.    2.    2.    1.98  1.979 1.968 1.955
 1.844 1.84  1.834 1.789 1.689 1.123]
entropy correction =  -0.02599273223865956
cycle= 53 E= -390.28415518551  delta_E= 0.367  |g|= 1.09  |ddm|= 0.998
HOMO: -1.6757358812260275 LUMO: -1.6678670819654748
mo_energy:
[-5.634 -5.593 -4.173 -4.158 -4.148 -4.14  -4.126 -4.112 -1.686 -1.686
 -1.685 -1.685 -1.685 -1.684 -1.683 -1.676 -1.676 -1.668 -1.312 -1.29
 -0.955 -0.946]
e_fermi =  -1.6674125827255672
[2.    2.    2.    2.    2.    2.    2.    2.    1.954 1.949 1.946 1.945
 1.941 1.925 1.913 1.701 1.682 1.045]
entropy correction =  -0.025038830398388074
cycle= 54 E= -390.532567108684  delta_E= -0.248  |g|= 0.662  |ddm|= 0.906
HOMO: -1.6778945219208328 LUMO: -1.6753267068098192
mo_energy:
[-5.638 -5.596 -4.181 -4.167 -4.16  -4.149 -4.122 -4.1   -1.69  -1.69
 -1.689 -1.688 -1.687 -1.684 -1.682 -1.68  -1.678 -1.675 -1.312 -1.29
 -0.956 -0.946]
e_fermi =  -1.6713894172438282
[2.    2.    2.    2.    2.    2.    2.    2.    1.956 1.954 1.946 1.929
 1.915 1.86  1.795 1.699 1.572 1.375]
entropy correction =  -0.028181883590249212
cycle= 55 E= -390.47491842097  delta_E= 0.0576  |g|= 0.76  |ddm|= 0.882
HOMO: -1.6807253038677048 LUMO: -1.676924313980506
mo_energy:
[-5.637 -5.596 -4.18  -4.164 -4.156 -4.148 -4.121 -4.106 -1.688 -1.687
 -1.686 -1.685 -1.684 -1.684 -1.683 -1.682 -1.681 -1.677 -1.312 -1.29
 -0.956 -0.946]
e_fermi =  -1.6718722710907352
[2.    2.    2.    2.    2.    2.    2.    2.    1.926 1.903 1.893 1.873
 1.848 1.843 1.792 1.746 1.709 1.466]
entropy correction =  -0.030499453787587838
cycle= 56 E= -390.658019895908  delta_E= -0.183  |g|= 0.315  |ddm|= 0.432
HOMO: -1.6759130925596464 LUMO: -1.6701816819917121
mo_energy:
[-5.633 -5.591 -4.173 -4.158 -4.15  -4.14  -4.121 -4.106 -1.685 -1.684
 -1.684 -1.683 -1.682 -1.681 -1.679 -1.677 -1.676 -1.67  -1.312 -1.29
 -0.955 -0.946]
e_fermi =  -1.6675420016016642
[2.    2.    2.    2.    2.    2.    2.    2.    1.94  1.933 1.926 1.912
 1.893 1.883 1.821 1.749 1.684 1.258]
entropy correction =  -0.028256727253554947
cycle= 57 E= -390.587279063915  delta_E= 0.0707  |g|= 0.55  |ddm|= 0.342
HOMO: -1.6723932034598898 LUMO: -1.6671039662631548
mo_energy:
[-5.63  -5.588 -4.171 -4.153 -4.143 -4.139 -4.119 -4.105 -1.681 -1.681
 -1.681 -1.681 -1.68  -1.679 -1.678 -1.675 -1.672 -1.667 -1.311 -1.289
 -0.955 -0.946]
e_fermi =  -1.6648431686660552
[2.    2.    2.    2.    2.    2.    2.    2.    1.931 1.928 1.925 1.924
 1.916 1.897 1.873 1.747 1.638 1.222]
entropy correction =  -0.027632523908282858
cycle= 58 E= -390.629638530317  delta_E= -0.0424  |g|= 0.42  |ddm|= 0.19
HOMO: -1.6760259411743144 LUMO: -1.6712191964863905
mo_energy:
[-5.633 -5.591 -4.173 -4.161 -4.154 -4.139 -4.117 -4.103 -1.686 -1.683
 -1.683 -1.682 -1.682 -1.681 -1.678 -1.677 -1.676 -1.671 -1.311 -1.29
 -0.955 -0.946]
e_fermi =  -1.6675701570652053
[2.    2.    2.    2.    2.    2.    2.    2.    1.948 1.919 1.907 1.903
 1.896 1.877 1.777 1.734 1.689 1.35 ]
entropy correction =  -0.029112686048713816
cycle= 59 E= -390.565009434431  delta_E= 0.0646  |g|= 0.602  |ddm|= 0.335
HOMO: -1.6759491294283602 LUMO: -1.6712037688125851
mo_energy:
[-5.633 -5.591 -4.173 -4.161 -4.154 -4.139 -4.117 -4.103 -1.686 -1.683
 -1.683 -1.682 -1.682 -1.681 -1.678 -1.677 -1.676 -1.671 -1.311 -1.29
 -0.955 -0.946]
e_fermi =  -1.6675567716899242
[2.    2.    2.    2.    2.    2.    2.    2.    1.949 1.92  1.908 1.903
 1.898 1.876 1.779 1.732 1.685 1.349]
entropy correction =  -0.029084030409092843
cycle= 60 E= -390.56324302917  delta_E= 0.00177  |g|= 0.606  |ddm|= 0.00511
HOMO: -1.6761184554430235 LUMO: -1.671260180238078
mo_energy:
[-5.632 -5.591 -4.173 -4.161 -4.153 -4.139 -4.117 -4.103 -1.686 -1.683
 -1.683 -1.682 -1.682 -1.681 -1.678 -1.677 -1.676 -1.671 -1.311 -1.29
 -0.955 -0.946]
e_fermi =  -1.6675720273571106
[2.    2.    2.    2.    2.    2.    2.    2.    1.95  1.918 1.904 1.903
 1.893 1.873 1.779 1.733 1.693 1.353]
entropy correction =  -0.029177218622041038
cycle= 61 E= -390.565632261503  delta_E= -0.00239  |g|= 0.601  |ddm|= 0.0172
HOMO: -1.6670808396283896 LUMO: -1.664115911222579
mo_energy:
[-5.626 -5.585 -4.165 -4.156 -4.146 -4.128 -4.116 -4.101 -1.683 -1.682
 -1.68  -1.68  -1.678 -1.676 -1.671 -1.669 -1.667 -1.664 -1.311 -1.289
 -0.954 -0.945]
e_fermi =  -1.6609109381353262
[2.    2.    2.    2.    2.    2.    2.    2.    1.977 1.974 1.959 1.955
 1.939 1.906 1.762 1.669 1.549 1.31 ]
entropy correction =  -0.02657603869850631
cycle= 62 E= -390.546448686641  delta_E= 0.0192  |g|= 0.627  |ddm|= 0.316
HOMO: -1.6686442450906602 LUMO: -1.6661619185829875
mo_energy:
[-5.628 -5.586 -4.165 -4.157 -4.144 -4.131 -4.118 -4.104 -1.686 -1.686
 -1.679 -1.678 -1.677 -1.675 -1.674 -1.672 -1.669 -1.666 -1.311 -1.289
 -0.955 -0.946]
e_fermi =  -1.6624818873167342
[2.    2.    2.    2.    2.    2.    2.    2.    1.983 1.98  1.927 1.921
 1.886 1.856 1.824 1.723 1.549 1.352]
entropy correction =  -0.027703276791563987
cycle= 63 E= -390.688060472543  delta_E= -0.142  |g|= 0.0483  |ddm|= 0.318
HOMO: -1.672299776265545 LUMO: -1.6693248351652146
mo_energy:
[-5.629 -5.588 -4.169 -4.155 -4.149 -4.137 -4.116 -4.101 -1.683 -1.682
 -1.68  -1.679 -1.677 -1.677 -1.677 -1.676 -1.672 -1.669 -1.311 -1.289
 -0.955 -0.946]
e_fermi =  -1.664965491496761
[2.    2.    2.    2.    2.    2.    2.    2.    1.949 1.936 1.9   1.886
 1.839 1.834 1.831 1.79  1.625 1.41 ]
entropy correction =  -0.029587590847146343
cycle= 64 E= -390.68344136897  delta_E= 0.00462  |g|= 0.162  |ddm|= 0.259
HOMO: -1.675158455879256 LUMO: -1.6693607293296346
mo_energy:
[-5.632 -5.59  -4.175 -4.158 -4.149 -4.142 -4.119 -4.1   -1.687 -1.683
 -1.683 -1.682 -1.681 -1.679 -1.677 -1.676 -1.675 -1.669 -1.311 -1.29
 -0.955 -0.946]
e_fermi =  -1.6664731719792236
[2.    2.    2.    2.    2.    2.    2.    2.    1.97  1.93  1.923 1.916
 1.903 1.852 1.783 1.742 1.701 1.281]
entropy correction =  -0.028291002949490197
cycle= 65 E= -390.663782992025  delta_E= 0.0197  |g|= 0.255  |ddm|= 0.505
HOMO: -1.6751765536498593 LUMO: -1.6715698389246925
mo_energy:
[-5.631 -5.59  -4.174 -4.156 -4.15  -4.142 -4.116 -4.102 -1.683 -1.681
 -1.68  -1.68  -1.68  -1.68  -1.679 -1.678 -1.675 -1.672 -1.311 -1.29
 -0.955 -0.946]
e_fermi =  -1.6670407753167016
[2.    2.    2.    2.    2.    2.    2.    2.    1.925 1.89  1.869 1.868
 1.859 1.852 1.84  1.801 1.672 1.424]
entropy correction =  -0.030260047121490344
cycle= 66 E= -390.687463776793  delta_E= -0.0237  |g|= 0.121  |ddm|= 0.259
HOMO: -1.6732376285012265 LUMO: -1.6703306284961958
mo_energy:
[-5.631 -5.59  -4.172 -4.155 -4.147 -4.141 -4.118 -4.104 -1.682 -1.682
 -1.681 -1.68  -1.68  -1.679 -1.679 -1.678 -1.673 -1.67  -1.311 -1.29
 -0.955 -0.946]
e_fermi =  -1.666406293917926
[2.    2.    2.    2.    2.    2.    2.    2.    1.922 1.914 1.903 1.883
 1.877 1.863 1.839 1.832 1.594 1.373]
entropy correction =  -0.029348509136338442
cycle= 67 E= -390.692354424692  delta_E= -0.00489  |g|= 0.0421  |ddm|= 0.224
HOMO: -1.6738814701616989 LUMO: -1.6708809185151654
mo_energy:
[-5.63  -5.589 -4.172 -4.155 -4.149 -4.141 -4.116 -4.102 -1.681 -1.681
 -1.68  -1.68  -1.68  -1.679 -1.679 -1.679 -1.674 -1.671 -1.311 -1.289
 -0.955 -0.946]
e_fermi =  -1.6664470025656315
[2.    2.    2.    2.    2.    2.    2.    2.    1.896 1.89  1.875 1.867
 1.864 1.861 1.858 1.84  1.631 1.416]
entropy correction =  -0.030112897734685777
cycle= 68 E= -390.692238255748  delta_E= 0.000116  |g|= 0.0697  |ddm|= 0.158
HOMO: -1.6738171558183021 LUMO: -1.6708126162515775
mo_energy:
[-5.63  -5.589 -4.172 -4.155 -4.149 -4.14  -4.116 -4.102 -1.68  -1.68
 -1.68  -1.68  -1.68  -1.679 -1.679 -1.679 -1.674 -1.671 -1.311 -1.289
 -0.955 -0.946]
e_fermi =  -1.6663475213620493
[2.    2.    2.    2.    2.    2.    2.    2.    1.885 1.88  1.875 1.874
 1.866 1.864 1.862 1.842 1.633 1.419]
entropy correction =  -0.03017076988394767
cycle= 69 E= -390.693146108979  delta_E= -0.000908  |g|= 0.0517  |ddm|= 0.0463
HOMO: -1.673903720589669 LUMO: -1.6709031972595925
mo_energy:
[-5.63  -5.589 -4.172 -4.155 -4.149 -4.14  -4.117 -4.103 -1.681 -1.681
 -1.68  -1.68  -1.68  -1.68  -1.68  -1.679 -1.674 -1.671 -1.311 -1.289
 -0.955 -0.946]
e_fermi =  -1.6666010433489657
[2.    2.    2.    2.    2.    2.    2.    2.    1.885 1.884 1.874 1.873
 1.871 1.869 1.863 1.852 1.623 1.406]
entropy correction =  -0.02999723548616622
cycle= 70 E= -390.694000410541  delta_E= -0.000854  |g|= 0.00538  |ddm|= 0.0552
HOMO: -1.673966526831297 LUMO: -1.6709410991989633
mo_energy:
[-5.63  -5.589 -4.172 -4.155 -4.149 -4.14  -4.116 -4.102 -1.68  -1.68
 -1.68  -1.68  -1.68  -1.68  -1.679 -1.679 -1.674 -1.671 -1.311 -1.289
 -0.955 -0.946]
e_fermi =  -1.6664466212482272
[2.    2.    2.    2.    2.    2.    2.    2.    1.881 1.877 1.876 1.874
 1.869 1.865 1.857 1.843 1.636 1.421]
entropy correction =  -0.030211984089904696
cycle= 71 E= -390.693561050411  delta_E= 0.000439  |g|= 0.039  |ddm|= 0.0441
HOMO: -1.6739166706093422 LUMO: -1.6709067724918463
mo_energy:
[-5.63  -5.589 -4.172 -4.155 -4.149 -4.14  -4.117 -4.103 -1.68  -1.68
 -1.68  -1.68  -1.68  -1.68  -1.679 -1.679 -1.674 -1.671 -1.311 -1.289
 -0.955 -0.946]
e_fermi =  -1.6664919594961047
[2.    2.    2.    2.    2.    2.    2.    2.    1.878 1.877 1.875 1.874
 1.872 1.871 1.859 1.849 1.631 1.415]
entropy correction =  -0.03012827580653356
cycle= 72 E= -390.694022632437  delta_E= -0.000462  |g|= 0.0144  |ddm|= 0.0156
HOMO: -1.6739189474550393 LUMO: -1.6709101098089831
mo_energy:
[-5.63  -5.589 -4.172 -4.155 -4.149 -4.14  -4.117 -4.102 -1.68  -1.68
 -1.68  -1.68  -1.68  -1.68  -1.679 -1.679 -1.674 -1.671 -1.311 -1.289
 -0.955 -0.946]
e_fermi =  -1.6664851089666255
[2.    2.    2.    2.    2.    2.    2.    2.    1.877 1.876 1.874 1.874
 1.873 1.871 1.858 1.849 1.631 1.416]
entropy correction =  -0.030139164699975185
cycle= 73 E= -390.694095866925  delta_E= -7.32e-05  |g|= 0.00108  |ddm|= 0.0091
HOMO: -1.673899541657279 LUMO: -1.670891933111127
mo_energy:
[-5.63  -5.589 -4.172 -4.155 -4.149 -4.14  -4.117 -4.103 -1.68  -1.68
 -1.68  -1.68  -1.68  -1.68  -1.679 -1.679 -1.674 -1.671 -1.311 -1.289
 -0.955 -0.946]
e_fermi =  -1.6664733494452264
[2.    2.    2.    2.    2.    2.    2.    2.    1.877 1.876 1.874 1.874
 1.873 1.871 1.859 1.849 1.631 1.415]
entropy correction =  -0.03013223433658326
cycle= 74 E= -390.694096596146  delta_E= -7.29e-07  |g|= 0.000471  |ddm|= 0.00274
HOMO: -1.6739028893754762 LUMO: -1.6708949991903865
mo_energy:
[-5.63  -5.589 -4.172 -4.155 -4.149 -4.14  -4.117 -4.103 -1.68  -1.68
 -1.68  -1.68  -1.68  -1.68  -1.679 -1.679 -1.674 -1.671 -1.311 -1.289
 -0.955 -0.946]
e_fermi =  -1.6664745846563445
[2.    2.    2.    2.    2.    2.    2.    2.    1.877 1.876 1.874 1.874
 1.873 1.871 1.858 1.849 1.631 1.415]
entropy correction =  -0.030134242688153325
cycle= 75 E= -390.694096674599  delta_E= -7.85e-08  |g|= 0.000153  |ddm|= 0.000646
HOMO: -1.6739034952869483 LUMO: -1.6708955454745271
mo_energy:
[-5.63  -5.589 -4.172 -4.155 -4.149 -4.14  -4.117 -4.102 -1.68  -1.68
 -1.68  -1.68  -1.68  -1.68  -1.679 -1.679 -1.674 -1.671 -1.311 -1.289
 -0.955 -0.946]
e_fermi =  -1.6664737091476227
[2.    2.    2.    2.    2.    2.    2.    2.    1.877 1.876 1.874 1.874
 1.873 1.871 1.858 1.849 1.631 1.415]
entropy correction =  -0.0301357359849369
cycle= 76 E= -390.694096685684  delta_E= -1.11e-08  |g|= 3.87e-05  |ddm|= 0.000442
HOMO: -1.6739021542758312 LUMO: -1.6708942901622075
mo_energy:
[-5.63  -5.589 -4.172 -4.155 -4.149 -4.14  -4.117 -4.103 -1.68  -1.68
 -1.68  -1.68  -1.68  -1.68  -1.679 -1.679 -1.674 -1.671 -1.311 -1.289
 -0.955 -0.946]
e_fermi =  -1.666473292243067
[2.    2.    2.    2.    2.    2.    2.    2.    1.877 1.876 1.874 1.874
 1.873 1.871 1.858 1.849 1.631 1.415]
entropy correction =  -0.03013483406936885
cycle= 77 E= -390.694096687213  delta_E= -1.53e-09  |g|= 2.38e-05  |ddm|= 0.000314
HOMO: -1.6739021319733018 LUMO: -1.6708942592391753
mo_energy:
[-5.63  -5.589 -4.172 -4.155 -4.149 -4.14  -4.117 -4.103 -1.68  -1.68
 -1.68  -1.68  -1.68  -1.68  -1.679 -1.679 -1.674 -1.671 -1.311 -1.289
 -0.955 -0.946]
e_fermi =  -1.6664732130165283
[2.    2.    2.    2.    2.    2.    2.    2.    1.877 1.876 1.874 1.874
 1.873 1.871 1.858 1.849 1.631 1.415]
entropy correction =  -0.03013489269246078
cycle= 78 E= -390.694096689277  delta_E= -2.06e-09  |g|= 8.37e-06  |ddm|= 0.000169
HOMO: -1.6739019219351772 LUMO: -1.6708940648081292
mo_energy:
[-5.63  -5.589 -4.172 -4.155 -4.149 -4.14  -4.117 -4.103 -1.68  -1.68
 -1.68  -1.68  -1.68  -1.68  -1.679 -1.679 -1.674 -1.671 -1.311 -1.289
 -0.955 -0.946]
e_fermi =  -1.6664730838179829
[2.    2.    2.    2.    2.    2.    2.    2.    1.877 1.876 1.874 1.874
 1.873 1.871 1.858 1.849 1.631 1.415]
entropy correction =  -0.030134819699726093
cycle= 79 E= -390.694096689289  delta_E= -1.24e-11  |g|= 2.77e-06  |ddm|= 2.22e-05
HOMO: -1.6739022397560304 LUMO: -1.6708943718169142
mo_energy:
[-5.63  -5.589 -4.172 -4.155 -4.149 -4.14  -4.117 -4.103 -1.68  -1.68
 -1.68  -1.68  -1.68  -1.68  -1.679 -1.679 -1.674 -1.671 -1.311 -1.289
 -0.955 -0.946]
e_fermi =  -1.6664732510450937
[2.    2.    2.    2.    2.    2.    2.    2.    1.877 1.876 1.874 1.874
 1.873 1.871 1.858 1.849 1.631 1.415]
entropy correction =  -0.030134968835910395
Extra cycle  E= -390.694096675009  delta_E= 1.43e-08  |g|= 0.000202  |ddm|= 0.000107
converged SCF energy = -390.694096675009


******** <class 'pydmfet.dfet_ao.scf.EmbedSCF'> flags ********
method = EmbedSCF-RKS-RHF
initial guess = minao
damping factor = 0
level shift factor = 0
DIIS = <class 'pyscf.scf.diis.CDIIS'>
DIIS start cycle = 1
DIIS space = 8
SCF tol = 1e-09
SCF gradient tol = None
max. SCF cycles = 200
direct_scf = False
chkfile to save SCF result = /tmp/tmpess2tpbe
max_memory 16000 MB (current use 1571 MB)
XC functionals = pbe,pbe
small_rho_cutoff = 1e-07
radial grids: 
    Treutler-Ahlrichs (JCP 102, 346 (M4)) radial grids
    
becke partition: Becke, JCP, 88, 2547 (1988)
pruning grids: <function nwchem_prune at 0x2b3f6e1d1400>
grids dens level: 3
symmetrized grids: False
atomic radii adjust function: <function treutler_atomic_radii_adjust at 0x2b3f6e1d1378>
Set gradient conv threshold to 3.16228e-05
tot grids = 139880
init E= -78.4460696461289
HOMO: 0.2408494121766773 LUMO: 0.2993307688732957
mo_energy:
[-0.32  -0.314 -0.312 -0.305 -0.296 -0.277 -0.073 -0.072 -0.047 -0.047
 -0.025 -0.024 -0.014 -0.007  0.003  0.026  0.028  0.048  0.053  0.054
  0.06   0.063  0.15   0.241  0.299  0.3    0.325  0.337  0.379]
e_fermi =  0.26858951505704814
[2.    2.    2.    2.    2.    2.    2.    2.    2.    2.    2.    2.
 2.    2.    2.    2.    2.    2.    2.    2.    2.    2.    2.    1.992
 0.004 0.003]
entropy correction =  -0.0005358112565512236
cycle= 1 E= -86.0200528852877  delta_E= -7.57  |g|= 2.66  |ddm|=  9.2
HOMO: 0.8709924217614344 LUMO: 0.9878798679986603
mo_energy:
[-0.129 -0.126 -0.112 -0.107  0.278  0.302  0.353  0.356  0.359  0.367
  0.369  0.37   0.381  0.382  0.462  0.469  0.481  0.554  0.752  0.77
  0.795  0.827  0.865  0.871  0.988  1.008  1.008  1.017  1.033]
e_fermi =  0.9300326947376212
[2. 2. 2. 2. 2. 2. 2. 2. 2. 2. 2. 2. 2. 2. 2. 2. 2. 2. 2. 2. 2. 2. 2. 2.]
entropy correction =  -2.52934728166077e-06
cycle= 2 E= -86.8480862687795  delta_E= -0.828  |g|= 2.04  |ddm|= 4.91
HOMO: 1.0535677092430527 LUMO: 1.05443286312169
mo_energy:
[0.234 0.235 0.245 0.256 0.43  0.453 0.651 0.656 0.656 0.667 0.669 0.678
 0.686 0.686 0.719 0.733 0.736 0.749 0.839 0.866 0.878 0.91  0.921 1.054
 1.054 1.062 1.066 1.07  1.073]
e_fermi =  1.051764326112513
[2.000e+00 2.000e+00 2.000e+00 2.000e+00 2.000e+00 2.000e+00 2.000e+00
 2.000e+00 2.000e+00 2.000e+00 2.000e+00 2.000e+00 2.000e+00 2.000e+00
 2.000e+00 2.000e+00 2.000e+00 2.000e+00 2.000e+00 2.000e+00 2.000e+00
 2.000e+00 2.000e+00 8.216e-01 7.393e-01 2.404e-01 1.107e-01 4.833e-02
 2.732e-02 1.122e-02 1.154e-03]
entropy correction =  -0.02142767931270186
cycle= 3 E= -88.1482496251178  delta_E= -1.3  |g|= 0.36  |ddm|= 2.94
HOMO: 0.9636757454812195 LUMO: 0.9881488103337337
mo_energy:
[0.182 0.183 0.187 0.203 0.309 0.334 0.593 0.603 0.603 0.612 0.616 0.621
 0.632 0.633 0.639 0.642 0.648 0.653 0.721 0.743 0.749 0.768 0.796 0.964
 0.988 0.997 0.997 1.003 1.006]
e_fermi =  0.9748980411393448
[2.    2.    2.    2.    2.    2.    2.    2.    2.    2.    2.    2.
 2.    2.    2.    2.    2.    2.    2.    2.    2.    2.    2.    1.808
 0.132 0.025 0.024 0.007 0.004]
entropy correction =  -0.00728107117509009
cycle= 4 E= -88.1955719428638  delta_E= -0.0473  |g|= 0.214  |ddm|= 1.72
HOMO: 0.9978754764196216 LUMO: 1.0163249087487447
mo_energy:
[0.197 0.198 0.204 0.219 0.361 0.386 0.611 0.62  0.62  0.629 0.632 0.639
 0.648 0.649 0.666 0.679 0.679 0.684 0.767 0.793 0.8   0.82  0.843 0.998
 1.016 1.018 1.02  1.023 1.023]
e_fermi =  1.0039698344303623
[2.    2.    2.    2.    2.    2.    2.    2.    2.    2.    2.    2.
 2.    2.    2.    2.    2.    2.    2.    2.    2.    2.    2.    1.544
 0.156 0.125 0.084 0.046 0.045]
entropy correction =  -0.01437929055183149
cycle= 5 E= -88.2116548672505  delta_E= -0.0161  |g|= 0.0586  |ddm|= 0.295
HOMO: 1.0094392965888839 LUMO: 1.0239902786186184
mo_energy:
[0.208 0.209 0.215 0.23  0.367 0.392 0.622 0.63  0.631 0.64  0.643 0.649
 0.659 0.66  0.679 0.692 0.692 0.695 0.775 0.8   0.81  0.832 0.853 1.009
 1.024 1.026 1.028 1.028 1.032]
e_fermi =  1.0133903499920331
[2.    2.    2.    2.    2.    2.    2.    2.    2.    2.    2.    2.
 2.    2.    2.    2.    2.    2.    2.    2.    2.    2.    2.    1.376
 0.214 0.154 0.105 0.102 0.048]
entropy correction =  -0.01757736135949413
cycle= 6 E= -88.2131724592436  delta_E= -0.00152  |g|= 0.0158  |ddm|= 0.154
HOMO: 1.0090907326316008 LUMO: 1.0244020513930816
mo_energy:
[0.206 0.207 0.214 0.228 0.369 0.394 0.621 0.628 0.629 0.638 0.641 0.648
 0.658 0.659 0.678 0.691 0.691 0.696 0.778 0.803 0.812 0.834 0.854 1.009
 1.024 1.026 1.028 1.028 1.032]
e_fermi =  1.0134033484496063
[2.    2.    2.    2.    2.    2.    2.    2.    2.    2.    2.    2.
 2.    2.    2.    2.    2.    2.    2.    2.    2.    2.    2.    1.406
 0.2   0.14  0.105 0.099 0.049]
entropy correction =  -0.01709426378103428
cycle= 7 E= -88.2132453803299  delta_E= -7.29e-05  |g|= 0.00519  |ddm|= 0.0312
HOMO: 1.0102876066799353 LUMO: 1.0249879244933344
mo_energy:
[0.207 0.208 0.215 0.229 0.37  0.395 0.622 0.629 0.63  0.639 0.642 0.649
 0.659 0.66  0.679 0.692 0.692 0.697 0.778 0.804 0.813 0.835 0.855 1.01
 1.025 1.027 1.029 1.029 1.033]
e_fermi =  1.0143124691973557
[2.    2.    2.    2.    2.    2.    2.    2.    2.    2.    2.    2.
 2.    2.    2.    2.    2.    2.    2.    2.    2.    2.    2.    1.382
 0.211 0.141 0.107 0.106 0.05 ]
entropy correction =  -0.017510343424662966
cycle= 8 E= -88.2132615448822  delta_E= -1.62e-05  |g|= 0.00135  |ddm|= 0.02
HOMO: 1.0102311510588513 LUMO: 1.0249655139622031
mo_energy:
[0.207 0.208 0.214 0.229 0.37  0.395 0.622 0.629 0.63  0.639 0.642 0.649
 0.659 0.66  0.679 0.692 0.692 0.697 0.778 0.804 0.813 0.835 0.855 1.01
 1.025 1.027 1.029 1.029 1.033]
e_fermi =  1.0142748457253912
[2.    2.    2.    2.    2.    2.    2.    2.    2.    2.    2.    2.
 2.    2.    2.    2.    2.    2.    2.    2.    2.    2.    2.    1.384
 0.211 0.141 0.107 0.106 0.05 ]
entropy correction =  -0.017482969158025347
cycle= 9 E= -88.2132622990388  delta_E= -7.54e-07  |g|= 0.000687  |ddm|= 0.00339
HOMO: 1.0101429293188895 LUMO: 1.02492618437005
mo_energy:
[0.207 0.208 0.214 0.228 0.37  0.395 0.622 0.629 0.63  0.639 0.642 0.649
 0.659 0.659 0.679 0.692 0.692 0.697 0.778 0.804 0.813 0.835 0.855 1.01
 1.025 1.027 1.029 1.029 1.033]
e_fermi =  1.0142124346428198
[2.    2.    2.    2.    2.    2.    2.    2.    2.    2.    2.    2.
 2.    2.    2.    2.    2.    2.    2.    2.    2.    2.    2.    1.386
 0.21  0.14  0.106 0.106 0.05 ]
entropy correction =  -0.017445521054037846
cycle= 10 E= -88.2132625677144  delta_E= -2.69e-07  |g|= 0.000215  |ddm|= 0.00209
HOMO: 1.0101382730196182 LUMO: 1.02492347945852
mo_energy:
[0.207 0.208 0.214 0.228 0.37  0.395 0.622 0.629 0.63  0.639 0.642 0.649
 0.659 0.659 0.679 0.692 0.692 0.697 0.778 0.804 0.813 0.835 0.855 1.01
 1.025 1.027 1.029 1.029 1.033]
e_fermi =  1.0142091788130663
[2.    2.    2.    2.    2.    2.    2.    2.    2.    2.    2.    2.
 2.    2.    2.    2.    2.    2.    2.    2.    2.    2.    2.    1.386
 0.21  0.14  0.106 0.106 0.05 ]
entropy correction =  -0.01744344236355654
cycle= 11 E= -88.2132625919576  delta_E= -2.42e-08  |g|= 2.47e-05  |ddm|= 0.000521
HOMO: 1.0101379966614754 LUMO: 1.0249215323118768
mo_energy:
[0.207 0.208 0.214 0.228 0.37  0.395 0.622 0.629 0.63  0.639 0.642 0.649
 0.659 0.659 0.679 0.692 0.692 0.697 0.778 0.804 0.813 0.835 0.855 1.01
 1.025 1.027 1.029 1.029 1.033]
e_fermi =  1.0142084647005787
[2.    2.    2.    2.    2.    2.    2.    2.    2.    2.    2.    2.
 2.    2.    2.    2.    2.    2.    2.    2.    2.    2.    2.    1.386
 0.21  0.14  0.106 0.106 0.05 ]
entropy correction =  -0.017443998699707128
cycle= 12 E= -88.2132625921755  delta_E= -2.18e-10  |g|= 9.7e-06  |ddm|= 6.11e-05
HOMO: 1.0101341483088706 LUMO: 1.024919177519609
mo_energy:
[0.207 0.208 0.214 0.228 0.37  0.395 0.622 0.629 0.63  0.639 0.642 0.649
 0.659 0.659 0.679 0.692 0.692 0.697 0.778 0.804 0.813 0.835 0.855 1.01
 1.025 1.027 1.029 1.029 1.032]
e_fermi =  1.0142055136398584
[2.    2.    2.    2.    2.    2.    2.    2.    2.    2.    2.    2.
 2.    2.    2.    2.    2.    2.    2.    2.    2.    2.    2.    1.386
 0.21  0.14  0.106 0.106 0.05 ]
entropy correction =  -0.017442652585164916
Extra cycle  E= -88.2132625920551  delta_E= 1.2e-10  |g|= 1.89e-05  |ddm|= 7.34e-05
converged SCF energy = -88.2132625920551
|umat| =  2.499948681385624
rks_ao.ne_frozen =  0
Set gradient conv threshold to 3.16228e-05
tot grids = 120648
init E= -388.440476292012
HOMO:  0.14864751512476676 LUMO:  0.18495856991182183
Fermi energy:       0.1654740202
[2.0000e+00 2.0000e+00 2.0000e+00 2.0000e+00 2.0000e+00 2.0000e+00
 2.0000e+00 2.0000e+00 2.0000e+00 2.0000e+00 2.0000e+00 2.0000e+00
 2.0000e+00 2.0000e+00 2.0000e+00 2.0000e+00 1.9332e+00 3.9801e-02
 2.3079e-02 3.0064e-03 9.0914e-04]
entropy correction =  -0.0032220019903579124
cycle= 1 E= -328.757083300384  delta_E= 59.7  |g|= 10.8  |ddm|= 8.03
HOMO:  -8.39798650877557 LUMO:  -8.322348762252382
Fermi energy:      -8.3599517914
[2.000e+00 2.000e+00 2.000e+00 2.000e+00 2.000e+00 2.000e+00 2.000e+00
 2.000e+00 2.000e+00 2.000e+00 2.000e+00 2.000e+00 2.000e+00 2.000e+00
 2.000e+00 2.000e+00 1.999e+00 1.083e-03]
entropy correction =  -9.451500189549194e-05
cycle= 2 E= -385.95605219056  delta_E= -57.2  |g|= 4.45  |ddm|= 8.39
HOMO:  -2.203991675828417 LUMO:  -2.1942452955378164
Fermi energy:      -2.1956878114
[2.     2.     2.     2.     2.     2.     2.     2.     2.     1.9999
 1.9981 1.9975 1.9963 1.9776 1.7768 1.7165 1.6807 0.8567]
entropy correction =  -0.01973119406098834
cycle= 3 E= -389.739891014633  delta_E= -3.78  |g|= 1.73  |ddm|= 3.55
HOMO:  -1.1328863750318507 LUMO:  -1.130514624037291
Fermi energy:      -1.1313883527
[2.     2.     2.     2.     2.     2.     2.     2.     2.     2.
 2.     2.     2.     2.     2.     1.3983 1.1487 0.9128 0.5005 0.0396]
entropy correction =  -0.026431710054382523
cycle= 4 E= -376.252082901909  delta_E= 13.5  |g|= 8.62  |ddm|= 4.22
HOMO:  -1.484790515689455 LUMO:  -1.4837662647175478
Fermi energy:      -1.4830749524
[2.     2.     2.     2.     2.     2.     2.     2.     2.     2.
 2.     2.     2.     1.9798 1.9435 1.8377 1.1699 1.069 ]
entropy correction =  -0.01836522019537535
cycle= 5 E= -389.135781525334  delta_E= -12.9  |g|= 2.63  |ddm|= 3.41
HOMO:  -1.5775369810285265 LUMO:  -1.577359149914028
Fermi energy:      -1.5727973881
[2.     2.     2.     2.     2.     2.     2.     2.     2.     2.
 2.     2.     2.     1.8455 1.7454 1.5407 1.4414 1.427 ]
entropy correction =  -0.023833418905151886
cycle= 6 E= -389.717502144061  delta_E= -0.582  |g|= 1.84  |ddm|= 1.07
HOMO:  -1.6560977683280664 LUMO:  -1.6488618672144355
Fermi energy:      -1.6524774036
[2.     2.     2.     2.     2.     2.     2.     2.     2.     2.
 2.     2.     2.     2.     1.9999 1.9998 1.347  0.6534]
entropy correction =  -0.012656921769446083
cycle= 7 E= -389.821587866226  delta_E= -0.104  |g|= 1.58  |ddm|=  1.6
HOMO:  -1.6593410687184702 LUMO:  -1.6544672327190737
Fermi energy:      -1.6566050949
[2.     2.     2.     2.     2.     2.     2.     2.     2.     2.
 1.9997 1.9995 1.9989 1.9985 1.9763 1.9706 1.267  0.7894]
entropy correction =  -0.014830971976202936
cycle= 8 E= -389.883994495273  delta_E= -0.0624  |g|= 1.52  |ddm|= 1.81
HOMO:  -1.6759150519643375 LUMO:  -1.656477601422918
Fermi energy:      -1.6645228221
[2.     2.     2.     2.     2.     2.     2.     2.     2.     2.
 1.9998 1.9998 1.9989 1.9936 1.9756 1.8846 1.8142 0.3334]
entropy correction =  -0.010744508461917403
cycle= 9 E= -389.86316422  delta_E= 0.0208  |g|= 1.45  |ddm|= 1.89
HOMO:  -1.6887808016200976 LUMO:  -1.6820537143354926
Fermi energy:      -1.6837191461
[2.     2.     2.     2.     2.     2.     2.     2.     2.     1.9998
 1.999  1.9988 1.9898 1.9528 1.9471 1.8109 1.467  0.835 ]
entropy correction =  -0.01848950770649904
cycle= 10 E= -389.892040893242  delta_E= -0.0289  |g|=  1.5  |ddm|= 1.83
HOMO:  -1.678239118726532 LUMO:  -1.6743013693406306
Fermi energy:      -1.6744266109
[2.     2.     2.     2.     2.     2.     2.     2.     2.     2.
 2.     2.     1.9999 1.9686 1.9622 1.718  1.3638 0.9875]
entropy correction =  -0.019002461788794747
cycle= 11 E= -389.849432673799  delta_E= 0.0426  |g|= 1.56  |ddm|= 0.21
HOMO:  -1.637118375980235 LUMO:  -1.6303448156858358
Fermi energy:      -1.6331621229
[2.     2.     2.     2.     2.     2.     2.     2.     2.     2.
 2.     2.     2.     2.     2.     1.8984 1.3762 0.7255]
entropy correction =  -0.014770281402807006
cycle= 12 E= -389.798055811699  delta_E= 0.0514  |g|=  1.6  |ddm|= 1.03
HOMO:  -1.678796091833911 LUMO:  -1.673295562487272
Fermi energy:      -1.6740491773
[2.     2.     2.     2.     2.     2.     2.     2.     1.9992 1.9991
 1.9988 1.9979 1.9978 1.9975 1.9845 1.6585 1.442  0.9248]
entropy correction =  -0.018238557766934515
cycle= 13 E= -389.871507872597  delta_E= -0.0735  |g|= 1.51  |ddm|= 0.285
HOMO:  -1.6643373071480734 LUMO:  -1.6601534021512183
Fermi energy:      -1.6615623010
[2.     2.     2.     2.     2.     2.     2.     2.     2.     2.
 2.     2.     1.9999 1.9989 1.9984 1.8722 1.2706 0.86  ]
entropy correction =  -0.015888921408515767
cycle= 14 E= -389.794135670287  delta_E= 0.0774  |g|= 1.58  |ddm|= 0.285
HOMO:  -1.6733789536944452 LUMO:  -1.6646880215126356
Fermi energy:      -1.6682930301
[2.     2.     2.     2.     2.     2.     2.     2.     2.     2.
 2.     1.9999 1.9998 1.9641 1.9595 1.9535 1.4688 0.6543]
entropy correction =  -0.01511647129519734
cycle= 15 E= -389.852841372386  delta_E= -0.0587  |g|= 1.54  |ddm|= 1.74
HOMO:  -1.6763068287691467 LUMO:  -1.667395842141571
Fermi energy:      -1.6711432694
[2.     2.     2.     2.     2.     2.     2.     2.     2.     2.
 2.     1.9999 1.9998 1.9668 1.9611 1.9557 1.4749 0.6419]
entropy correction =  -0.014917451052826729
cycle= 16 E= -389.85523857175  delta_E= -0.0024  |g|= 1.53  |ddm|= 0.0147
HOMO:  -1.6740869153398577 LUMO:  -1.665814580283624
Fermi energy:      -1.6694839768
[2.     2.     2.     2.     2.     2.     2.     2.     2.     2.
 2.     2.     2.     1.9803 1.9707 1.9701 1.4303 0.6487]
entropy correction =  -0.014374307324343168
cycle= 17 E= -389.847021660435  delta_E= 0.00822  |g|= 1.54  |ddm|= 0.0703
HOMO:  -1.6689063534774333 LUMO:  -1.66531140114936
Fermi energy:      -1.6633635081
[2.     2.     2.     2.     2.     2.     2.     2.     2.     2.
 2.     2.     2.     1.9468 1.7072 1.6498 1.5037 1.1924]
entropy correction =  -0.022377039487223957
[...]
 1.8972 1.8828 1.8683 1.8674 1.8482 1.8296 1.6487 1.3561]
entropy correction =  -0.02959934892082526
cycle= 37 E= -390.691677380028  delta_E= 0.0045  |g|= 0.171  |ddm|= 0.18
HOMO:  -1.6726171792401783 LUMO:  -1.6693995288943175
Fermi energy:      -1.6653076355
[2.     2.     2.     2.     2.     2.     2.     2.     1.8908 1.8885
 1.8827 1.8775 1.8742 1.8667 1.8597 1.8484 1.6236 1.3878]
entropy correction =  -0.029821853551211835
cycle= 38 E= -390.697403739117  delta_E= -0.00573  |g|= 0.121  |ddm|= 0.0961
HOMO:  -1.6722910800517976 LUMO:  -1.6692808984888718
Fermi energy:      -1.6651159349
[2.     2.     2.     2.     2.     2.     2.     2.     1.8918 1.8862
 1.8822 1.878  1.8735 1.8654 1.8635 1.8501 1.6154 1.394 ]
entropy correction =  -0.02983193417578
cycle= 39 E= -390.701963945643  delta_E= -0.00456  |g|= 0.0394  |ddm|= 0.066
HOMO:  -1.6728413301886411 LUMO:  -1.6697758805696465
Fermi energy:      -1.6654698683
[2.     2.     2.     2.     2.     2.     2.     2.     1.8863 1.8812
 1.8777 1.8764 1.8715 1.867  1.8574 1.8494 1.6274 1.4058]
entropy correction =  -0.03002027195532215
cycle= 40 E= -390.702544442234  delta_E= -0.00058  |g|= 0.0107  |ddm|= 0.0598
HOMO:  -1.6728532399091067 LUMO:  -1.6697765607921435
Fermi energy:      -1.6652771212
[2.     2.     2.     2.     2.     2.     2.     2.     1.883  1.8788
 1.8738 1.871  1.869  1.8669 1.8549 1.841  1.6397 1.4219]
entropy correction =  -0.03023074190148112
cycle= 41 E= -390.70258287213  delta_E= -3.84e-05  |g|= 0.00925  |ddm|= 0.0478
HOMO:  -1.6725869412114804 LUMO:  -1.6695390859912063
Fermi energy:      -1.6650964998
[2.     2.     2.     2.     2.     2.     2.     2.     1.8786 1.8761
 1.8743 1.8732 1.872  1.8705 1.8574 1.8461 1.6346 1.4172]
entropy correction =  -0.03016898628271185
cycle= 42 E= -390.702637604239  delta_E= -5.47e-05  |g|= 0.00273  |ddm|= 0.025
HOMO:  -1.672570140348019 LUMO:  -1.6695232382618312
Fermi energy:      -1.6651255487
[2.     2.     2.     2.     2.     2.     2.     2.     1.8779 1.8765
 1.8752 1.8744 1.8724 1.8706 1.8593 1.8484 1.6318 1.4135]
entropy correction =  -0.030122327293734773
cycle= 43 E= -390.702642499989  delta_E= -4.9e-06  |g|= 0.000918  |ddm|= 0.00881
HOMO:  -1.672610586594819 LUMO:  -1.6695605270112575
Fermi energy:      -1.6651480630
[2.     2.     2.     2.     2.     2.     2.     2.     1.8778 1.8762
 1.875  1.874  1.8725 1.8707 1.8585 1.8477 1.6329 1.4147]
entropy correction =  -0.03013885894558202
cycle= 44 E= -390.702643334927  delta_E= -8.35e-07  |g|= 0.000271  |ddm|= 0.00264
HOMO:  -1.6726306407086444 LUMO:  -1.6695792316573554
Fermi energy:      -1.6651599354
[2.     2.     2.     2.     2.     2.     2.     2.     1.8779 1.8763
 1.8747 1.8738 1.8722 1.8708 1.8583 1.8473 1.6334 1.4152]
entropy correction =  -0.030146336184463277
cycle= 45 E= -390.702643359333  delta_E= -2.44e-08  |g|= 0.000183  |ddm|= 0.00139
HOMO:  -1.6726250949758787 LUMO:  -1.6695740565179358
Fermi energy:      -1.6651567021
[2.     2.     2.     2.     2.     2.     2.     2.     1.8779 1.8763
 1.8749 1.8738 1.8723 1.8708 1.8583 1.8474 1.6333 1.4151]
entropy correction =  -0.03014419925724078
cycle= 46 E= -390.702643388123  delta_E= -2.88e-08  |g|= 0.000138  |ddm|= 0.000933
HOMO:  -1.6726237870995828 LUMO:  -1.6695728376943102
Fermi energy:      -1.6651556163
[2.     2.     2.     2.     2.     2.     2.     2.     1.8779 1.8762
 1.8747 1.874  1.8724 1.8708 1.8583 1.8474 1.6332 1.4151]
entropy correction =  -0.03014405791823941
cycle= 47 E= -390.702643378239  delta_E= 9.88e-09  |g|= 0.00011  |ddm|= 0.000815
HOMO:  -1.672621129609542 LUMO:  -1.6695702923818618
Fermi energy:      -1.6651519798
[2.     2.     2.     2.     2.     2.     2.     2.     1.8779 1.8763
 1.8748 1.8739 1.8724 1.8707 1.8583 1.8474 1.6333 1.4152]
entropy correction =  -0.03014513626781466
cycle= 48 E= -390.70264338115  delta_E= -2.91e-09  |g|= 0.000244  |ddm|= 0.000741
HOMO:  -1.6726237919480103 LUMO:  -1.6695728103121026
Fermi energy:      -1.6651554306
[2.     2.     2.     2.     2.     2.     2.     2.     1.8779 1.8763
 1.8748 1.8739 1.8723 1.8708 1.8583 1.8474 1.6333 1.4151]
entropy correction =  -0.030144222797096908
cycle= 49 E= -390.702643404965  delta_E= -2.38e-08  |g|= 2.11e-05  |ddm|= 0.000236
HOMO:  -1.67262375276737 LUMO:  -1.6695727762052737
Fermi energy:      -1.6651552840
[2.     2.     2.     2.     2.     2.     2.     2.     1.8779 1.8763
 1.8748 1.8739 1.8723 1.8708 1.8583 1.8474 1.6333 1.4151]
entropy correction =  -0.030144336734171863
cycle= 50 E= -390.702643405017  delta_E= -5.19e-11  |g|= 1.42e-05  |ddm|= 3.11e-05
HOMO:  -1.6726233396164902 LUMO:  -1.6695721587350019
Fermi energy:      -1.6651552633
[2.     2.     2.     2.     2.     2.     2.     2.     1.8778 1.8764
 1.8747 1.8739 1.8724 1.8708 1.8583 1.8474 1.6332 1.415 ]
entropy correction =  -0.03014379449204485
Extra cycle  E= -390.702642241058  delta_E= 1.16e-06  |g|= 0.00183  |ddm|= 0.000785
entropy correction =  -0.03014379449204485
rks_ao.ne_frozen =  0
Set gradient conv threshold to 3.16228e-05
tot grids = 139880
init E= -78.4426995734002
HOMO:  0.241243125359943 LUMO:  0.30000003178255924
Fermi energy:       0.2690416157
[2.     2.     2.     2.     2.     2.     2.     2.     2.     2.
 2.     2.     2.     2.     2.     2.     2.     2.     2.     2.
 2.     2.     2.     1.9923 0.0041 0.0036]
entropy correction =  -0.0005305171087056389
cycle= 1 E= -86.0167689182622  delta_E= -7.57  |g|= 2.66  |ddm|= 9.19
HOMO:  0.871361060889871 LUMO:  0.9919283044519531
Fermi energy:       0.9323314109
[2. 2. 2. 2. 2. 2. 2. 2. 2. 2. 2. 2. 2. 2. 2. 2. 2. 2. 2. 2. 2. 2. 2. 2.]
entropy correction =  -1.9067933792277796e-06
cycle= 2 E= -86.8449420501788  delta_E= -0.828  |g|= 2.03  |ddm|=  4.9
HOMO:  1.0548510142956917 LUMO:  1.0558632173207443
Fermi energy:       1.0535218035
[2.0000e+00 2.0000e+00 2.0000e+00 2.0000e+00 2.0000e+00 2.0000e+00
 2.0000e+00 2.0000e+00 2.0000e+00 2.0000e+00 2.0000e+00 2.0000e+00
 2.0000e+00 2.0000e+00 2.0000e+00 2.0000e+00 2.0000e+00 2.0000e+00
 2.0000e+00 2.0000e+00 2.0000e+00 2.0000e+00 2.0000e+00 8.6786e-01
 7.7005e-01 1.5063e-01 1.1460e-01 4.5233e-02 3.8867e-02 1.1668e-02
 1.1019e-03]
entropy correction =  -0.020818984562972185
cycle= 3 E= -88.1444904830087  delta_E= -1.3  |g|= 0.359  |ddm|= 2.95
HOMO:  0.9652770450168118 LUMO:  0.9898059846009508
Fermi energy:       0.9765067093
[2.     2.     2.     2.     2.     2.     2.     2.     2.     2.
 2.     2.     2.     2.     2.     2.     2.     2.     2.     2.
 2.     2.     2.     1.8086 0.1308 0.026  0.0239 0.0068 0.0039]
entropy correction =  -0.007281701078476286
cycle= 4 E= -88.1913002426475  delta_E= -0.0468  |g|= 0.212  |ddm|= 1.71
HOMO:  0.9997216493359186 LUMO:  1.0180308864601328
Fermi energy:       1.0057238979
[2.0000e+00 2.0000e+00 2.0000e+00 2.0000e+00 2.0000e+00 2.0000e+00
 2.0000e+00 2.0000e+00 2.0000e+00 2.0000e+00 2.0000e+00 2.0000e+00
 2.0000e+00 2.0000e+00 2.0000e+00 2.0000e+00 2.0000e+00 2.0000e+00
 2.0000e+00 2.0000e+00 2.0000e+00 2.0000e+00 2.0000e+00 1.5372e+00
 1.5722e-01 1.2556e-01 8.7064e-02 4.6918e-02 4.5699e-02 1.8292e-04
 1.4949e-04]
entropy correction =  -0.014517433161727211
cycle= 5 E= -88.207278321247  delta_E= -0.016  |g|= 0.058  |ddm|=  0.3
HOMO:  1.010843614784314 LUMO:  1.0254076195640893
Fermi energy:       1.0147754703
[2.0000e+00 2.0000e+00 2.0000e+00 2.0000e+00 2.0000e+00 2.0000e+00
 2.0000e+00 2.0000e+00 2.0000e+00 2.0000e+00 2.0000e+00 2.0000e+00
 2.0000e+00 2.0000e+00 2.0000e+00 2.0000e+00 2.0000e+00 2.0000e+00
 2.0000e+00 2.0000e+00 2.0000e+00 2.0000e+00 2.0000e+00 1.3741e+00
 2.1311e-01 1.5639e-01 1.0512e-01 1.0209e-01 4.8360e-02 4.2546e-04
 4.0584e-04]
entropy correction =  -0.017604173253395316
cycle= 6 E= -88.2087627887878  delta_E= -0.00148  |g|= 0.0157  |ddm|= 0.151
HOMO:  1.0105412753067924 LUMO:  1.0258251523200885
Fermi energy:       1.0148134403
[2.0000e+00 2.0000e+00 2.0000e+00 2.0000e+00 2.0000e+00 2.0000e+00
 2.0000e+00 2.0000e+00 2.0000e+00 2.0000e+00 2.0000e+00 2.0000e+00
 2.0000e+00 2.0000e+00 2.0000e+00 2.0000e+00 2.0000e+00 2.0000e+00
 2.0000e+00 2.0000e+00 2.0000e+00 2.0000e+00 2.0000e+00 1.4030e+00
 1.9908e-01 1.4223e-01 1.0460e-01 1.0116e-01 4.9004e-02 4.7378e-04
 4.5781e-04]
entropy correction =  -0.017150692156090105
cycle= 7 E= -88.208833494946  delta_E= -7.07e-05  |g|= 0.00509  |ddm|= 0.0302
HOMO:  1.0116922679301077 LUMO:  1.026380671673732
Fermi energy:       1.0156839028
[2.0000e+00 2.0000e+00 2.0000e+00 2.0000e+00 2.0000e+00 2.0000e+00
 2.0000e+00 2.0000e+00 2.0000e+00 2.0000e+00 2.0000e+00 2.0000e+00
 2.0000e+00 2.0000e+00 2.0000e+00 2.0000e+00 2.0000e+00 2.0000e+00
 2.0000e+00 2.0000e+00 2.0000e+00 2.0000e+00 2.0000e+00 1.3792e+00
 2.1066e-01 1.4362e-01 1.0906e-01 1.0611e-01 5.0312e-02 5.2235e-04
 4.9099e-04]
entropy correction =  -0.017555678759931945
cycle= 8 E= -88.2088488779429  delta_E= -1.54e-05  |g|= 0.00154  |ddm|= 0.0199
HOMO:  1.011657458811027 LUMO:  1.0263676256826029
Fermi energy:       1.0156618656
[2.0000e+00 2.0000e+00 2.0000e+00 2.0000e+00 2.0000e+00 2.0000e+00
 2.0000e+00 2.0000e+00 2.0000e+00 2.0000e+00 2.0000e+00 2.0000e+00
 2.0000e+00 2.0000e+00 2.0000e+00 2.0000e+00 2.0000e+00 2.0000e+00
 2.0000e+00 2.0000e+00 2.0000e+00 2.0000e+00 2.0000e+00 1.3803e+00
 2.1032e-01 1.4331e-01 1.0879e-01 1.0599e-01 5.0244e-02 5.2080e-04
 4.9066e-04]
entropy correction =  -0.017537032289982
cycle= 9 E= -88.2088498239554  delta_E= -9.46e-07  |g|= 0.000729  |ddm|= 0.00379
HOMO:  1.0115613881533934 LUMO:  1.0263242066784701
Fermi energy:       1.0155934517
[2.0000e+00 2.0000e+00 2.0000e+00 2.0000e+00 2.0000e+00 2.0000e+00
 2.0000e+00 2.0000e+00 2.0000e+00 2.0000e+00 2.0000e+00 2.0000e+00
 2.0000e+00 2.0000e+00 2.0000e+00 2.0000e+00 2.0000e+00 2.0000e+00
 2.0000e+00 2.0000e+00 2.0000e+00 2.0000e+00 2.0000e+00 1.3827e+00
 2.0938e-01 1.4292e-01 1.0809e-01 1.0580e-01 5.0112e-02 5.1709e-04
 4.8811e-04]
entropy correction =  -0.017496963751655156
cycle= 10 E= -88.2088501231089  delta_E= -2.99e-07  |g|= 0.000267  |ddm|= 0.00222
HOMO:  1.011549187876133 LUMO:  1.0263179529971072
Fermi energy:       1.0155846586
[2.0000e+00 2.0000e+00 2.0000e+00 2.0000e+00 2.0000e+00 2.0000e+00
 2.0000e+00 2.0000e+00 2.0000e+00 2.0000e+00 2.0000e+00 2.0000e+00
 2.0000e+00 2.0000e+00 2.0000e+00 2.0000e+00 2.0000e+00 2.0000e+00
 2.0000e+00 2.0000e+00 2.0000e+00 2.0000e+00 2.0000e+00 1.3830e+00
 2.0929e-01 1.4286e-01 1.0800e-01 1.0577e-01 5.0101e-02 5.1664e-04
 4.8776e-04]
entropy correction =  -0.017491992068075623
cycle= 11 E= -88.2088501617088  delta_E= -3.86e-08  |g|= 2.22e-05  |ddm|= 0.000642
HOMO:  1.0115486613665123 LUMO:  1.0263158069642453
Fermi energy:       1.0155837392
[2.0000e+00 2.0000e+00 2.0000e+00 2.0000e+00 2.0000e+00 2.0000e+00
 2.0000e+00 2.0000e+00 2.0000e+00 2.0000e+00 2.0000e+00 2.0000e+00
 2.0000e+00 2.0000e+00 2.0000e+00 2.0000e+00 2.0000e+00 2.0000e+00
 2.0000e+00 2.0000e+00 2.0000e+00 2.0000e+00 2.0000e+00 1.3829e+00
 2.0933e-01 1.4285e-01 1.0798e-01 1.0577e-01 5.0109e-02 5.1656e-04
 4.8774e-04]
entropy correction =  -0.017492480193847092
cycle= 12 E= -88.2088501618759  delta_E= -1.67e-10  |g|= 9.48e-06  |ddm|= 5.63e-05
HOMO:  1.0115448827469513 LUMO:  1.0263135134727648
Fermi energy:       1.0155808458
[2.0000e+00 2.0000e+00 2.0000e+00 2.0000e+00 2.0000e+00 2.0000e+00
 2.0000e+00 2.0000e+00 2.0000e+00 2.0000e+00 2.0000e+00 2.0000e+00
 2.0000e+00 2.0000e+00 2.0000e+00 2.0000e+00 2.0000e+00 2.0000e+00
 2.0000e+00 2.0000e+00 2.0000e+00 2.0000e+00 2.0000e+00 1.3830e+00
 2.0931e-01 1.4285e-01 1.0796e-01 1.0576e-01 5.0104e-02 5.1639e-04
 4.8758e-04]
entropy correction =  -0.017491157452643864
Extra cycle  E= -88.2088501617572  delta_E= 1.19e-10  |g|= 1.87e-05  |ddm|= 7.32e-05
entropy correction =  -0.017491157452643864
scf energies:
EA (no vemb contrib.) =  -445.24050723059986
EB (no vemb contrib.) =  -181.20548674692023
W =  -626.1323709064537
P_imp change (scf - non-scf):  0.02026500337167367
P_bath change (scf - non-scf):  0.019241672430015296
|P_frag + P_env - P_ref| =  0.5222339361612781
max element of (P_frag + P_env - P_ref) =  0.06816651827942843
mo orthogonality:
[[ 2.5006e-03  8.9919e-05 -7.9930e-06  6.7419e-07  1.1708e-02  4.5675e-06
  -3.8266e-06  2.1795e-04 -1.9543e-03 -1.8470e-04  1.9642e-04  1.1453e-05
   1.1701e-04 -7.1098e-06 -3.7891e-05  3.8043e-03  8.4606e-04  1.5868e-04
   9.8145e-06 -1.8763e-04  1.8315e-05 -9.5761e-03 -7.7145e-06 -1.1648e-06
  -8.1870e-05  1.9744e-01 -2.0850e-04  2.1100e-03  1.0053e-03  6.2519e-03
   3.8128e-02]
 [ 1.0296e-04 -6.5722e-03  2.8660e-05 -3.9648e-05  1.2856e-04  1.0041e-05
   1.7512e-05 -7.6845e-04 -1.1988e-04  7.7696e-06  1.7795e-05 -2.4027e-04
   8.7957e-06  1.4903e-04  4.6733e-03  4.4842e-05 -3.1364e-05 -4.5743e-06
  -1.0290e-05 -3.5198e-05 -3.3180e-03 -7.6850e-05  4.7670e-05  2.0227e-05
   1.7448e-04  2.2993e-03 -5.6106e-03 -1.7161e-01  1.2084e-04  9.8051e-04
   4.3180e-04]
 [ 1.4727e-04  5.7872e-06  3.1473e-06 -2.2332e-06  1.8597e-04  2.9840e-07
  -6.0443e-08  2.1871e-05  1.9830e-05 -4.4996e-06  1.2953e-05  1.1900e-06
   4.1181e-05 -1.8261e-06  1.4295e-05  3.4404e-04  7.7257e-05  3.2124e-05
   5.5151e-08  3.6450e-05  1.7582e-05  3.0098e-06 -4.3016e-06  5.1493e-06
   3.8295e-05 -1.1374e-02 -1.1508e-05  3.5390e-04  1.9653e-04  3.4630e-03
   2.4202e-02]
 [-1.9183e-06 -4.6693e-06 -4.9582e-04  4.4228e-06  1.2408e-06 -7.2842e-05
  -2.0308e-06  2.2465e-06 -3.1271e-05  3.3236e-04 -6.4239e-04  1.7347e-05
   1.8459e-05  3.7564e-07  4.5263e-06  4.0223e-05 -7.2552e-06 -2.5149e-04
   1.8257e-06 -5.8809e-06 -1.2045e-06  1.2350e-05  2.2532e-04 -9.4742e-04
  -9.8505e-05 -5.9226e-06  3.1356e-03 -2.2131e-04  8.5441e-05 -8.9699e-03
   7.4309e-04]
 [-1.1375e-06 -2.9298e-06  3.2284e-05  1.0151e-04  1.9144e-06 -1.1892e-03
  -3.7996e-05  4.6736e-05  7.3591e-06 -2.0170e-05  3.4240e-05  2.8128e-04
  -3.1010e-06  1.7567e-05  1.1534e-05  3.6168e-05 -1.6340e-04  1.9133e-05
   1.7688e-05  1.0572e-05  3.2125e-05  4.1460e-06  3.8225e-03  4.0766e-05
  -1.5820e-03  7.4015e-05  5.2593e-02 -1.4985e-03  1.3420e-05  4.0996e-04
  -2.2785e-04]
 [-4.2848e-06  2.5187e-04 -8.7813e-06 -5.7675e-06 -4.6216e-06  1.4275e-06
  -4.6738e-05  1.4532e-03  1.4851e-04  3.8079e-06 -9.0869e-07 -2.2749e-05
   3.5194e-06  3.2568e-05  6.8826e-04 -1.6063e-06  2.6768e-06  5.9345e-07
  -9.0139e-07  8.9594e-06  1.1404e-03  2.2075e-06 -3.0689e-05 -2.3032e-06
   7.3967e-04  1.5830e-04  3.4360e-04  2.5019e-02 -8.7917e-05 -1.9105e-05
  -3.9042e-04]
 [-4.4571e-07 -1.1674e-05 -7.4789e-07  3.7431e-05  3.4046e-07 -8.9468e-05
   1.5933e-03  3.8532e-05  3.2585e-06  8.1025e-06  2.6002e-06 -4.0750e-05
   4.4032e-07 -1.8406e-06  2.4285e-06  1.3016e-06 -2.2338e-06  1.2198e-06
   7.9287e-04  1.5758e-06 -1.6045e-05 -2.9934e-07  1.5438e-04 -8.3137e-07
   7.3344e-02  4.5874e-05  1.3975e-03 -2.2492e-04 -3.0839e-03 -1.0732e-04
  -1.8375e-05]
 [ 9.6822e-06  2.7405e-06  5.3563e-05  1.0838e-06 -1.8805e-05  2.2434e-07
   4.5724e-05  1.3026e-06  2.6136e-05 -1.4750e-04 -5.9271e-06 -9.3069e-07
  -9.5647e-07  1.1613e-06  2.9835e-06  9.4326e-06  6.0681e-07 -3.6379e-05
   2.4501e-05  5.3293e-07  4.6811e-06  1.1998e-05  2.5504e-06 -1.4716e-06
   1.8155e-03 -4.0386e-04  5.4427e-05  1.9173e-04  1.1669e-01  3.9842e-03
  -2.6727e-05]
 [ 8.8922e-04 -1.5080e-04  1.5167e-05 -2.3895e-05  5.7764e-04 -2.2459e-05
   5.5847e-04 -2.3117e-03 -6.5561e-03 -2.1055e-03 -5.6956e-04 -1.7447e-04
  -6.2915e-04  2.8138e-03  7.8365e-04  3.1767e-03  6.3251e-04  1.8297e-04
  -1.3330e-03  1.1909e-03  1.6068e-03  6.0210e-03  1.2843e-05  7.5604e-04
   3.3286e-04 -7.0539e-03 -3.5979e-04 -1.1833e-02 -8.3441e-04 -1.2923e-03
  -8.4242e-03]
 [-1.1514e-04 -2.0371e-04 -7.7159e-06  3.1300e-05 -1.0159e-04  3.1502e-05
  -1.2037e-03 -3.7400e-03  4.5543e-04  9.6708e-04  5.7477e-04 -2.6454e-04
   4.9327e-03  1.8868e-03  8.9158e-04 -6.7196e-04 -7.4057e-05 -9.5051e-06
   4.0845e-03 -5.3480e-03  2.0822e-03 -6.1482e-04 -4.2231e-04 -2.2174e-04
  -9.5506e-04  9.9377e-03 -1.7341e-04 -7.4728e-03  6.0807e-04  5.7710e-04
   3.0098e-03]
 [ 5.6592e-04  1.4793e-04 -1.2041e-05 -3.2530e-05  4.2584e-04 -1.8836e-05
   1.1152e-03  3.0385e-03 -3.9066e-03  1.3703e-03  1.1659e-03  2.6399e-04
   3.7200e-03 -2.7570e-03 -5.7633e-04  2.0000e-03  3.4476e-04  1.8202e-04
  -3.6929e-03 -4.0225e-03 -1.4008e-03  4.1379e-03  4.2807e-04  1.3894e-04
   8.6598e-04 -8.9804e-03  1.9422e-04  8.2633e-03  9.6537e-04 -6.6945e-04
  -6.4079e-03]
 [-1.5370e-04  4.2119e-05 -3.0894e-06 -4.2172e-05 -9.3382e-05 -2.5110e-05
   4.3109e-04  7.4921e-04  1.6041e-03 -4.5270e-03 -2.3689e-03  1.5674e-04
   2.7642e-03 -1.3312e-03 -2.3978e-04 -4.9923e-04 -2.6327e-04 -9.5168e-05
  -1.3467e-03 -3.1339e-03 -4.0298e-04 -9.5559e-04  3.8427e-04  6.2685e-04
   3.2488e-04 -5.6700e-03  1.4761e-04  6.8488e-03 -2.5861e-03 -5.6270e-04
  -2.2127e-04]
 [ 4.0048e-04  2.3199e-04  5.4395e-06  5.0305e-05  3.1310e-04  4.7778e-05
  -2.8457e-03  4.0271e-03 -2.4772e-03 -1.0118e-03 -2.7966e-04  5.3298e-05
  -1.6182e-04 -5.3974e-04 -9.9362e-04  1.5465e-03  6.0113e-04  7.7991e-05
   8.2147e-03  3.1955e-04 -2.2467e-03  2.8654e-03 -4.1365e-04  3.2696e-04
  -1.8910e-03 -1.5853e-02  2.3056e-04  6.4205e-03 -2.3787e-04 -1.0486e-03
  -6.6570e-03]
 [-1.4318e-04  3.1366e-04 -1.2320e-05 -6.2042e-05 -7.3950e-05 -5.8612e-05
   4.5647e-04  5.0229e-03  1.5829e-03  3.6375e-04  1.0913e-04 -6.8450e-06
   9.0336e-04  5.3375e-03 -1.5005e-03 -4.9350e-04 -1.6376e-04 -2.3243e-05
  -1.9919e-03 -8.3073e-04 -3.0943e-03 -8.9708e-04  4.9484e-04  7.1754e-05
   5.1406e-04  7.6280e-03 -3.3845e-04 -7.1534e-03  2.4583e-05  4.8391e-04
   2.8839e-03]
 [-1.4262e-05  2.5018e-04  1.5087e-05  3.2640e-05 -1.2689e-05  2.4140e-05
  -8.9075e-05  2.1054e-03  3.1171e-04 -3.6666e-05 -2.4316e-05 -1.2397e-04
   4.6231e-05 -3.8966e-04  2.1137e-03 -1.2877e-04  1.1828e-04 -5.7993e-06
   4.3221e-05 -1.1439e-04 -3.5954e-03 -3.1564e-05 -1.6300e-04  2.2949e-05
   4.3357e-04  5.6421e-03 -7.5267e-03 -2.4052e-01  1.8181e-04  9.5091e-04
   1.3239e-03]
 [-2.3857e-04  8.0507e-06 -8.7722e-06  3.2820e-05 -2.1400e-04  2.6539e-05
  -7.1665e-05  4.2935e-05  1.4118e-03 -1.2260e-05 -1.2973e-04 -3.8674e-05
  -1.3537e-04 -2.7035e-04 -1.6659e-04 -1.1680e-03 -1.7737e-04 -5.6572e-05
   1.8539e-04  5.2072e-05  8.5089e-05 -7.7277e-04 -2.0936e-04 -1.0269e-04
  -1.6916e-04  2.8994e-01 -1.2766e-04  5.8551e-03  8.7907e-04  9.7679e-03
   6.7842e-02]
 [ 1.9969e-05  3.0407e-05  1.8318e-04  2.8373e-02 -1.8298e-05  3.0009e-02
   7.3164e-04 -1.5548e-03 -3.2199e-04 -1.6831e-04  2.6049e-04 -4.5870e-02
  -1.3001e-04 -2.4255e-03 -1.8063e-03 -1.5364e-02  6.8380e-02 -1.9411e-03
  -9.7290e-04 -4.3113e-04 -6.9000e-04 -2.6001e-04 -1.4558e-01 -3.8591e-03
   5.3693e-04 -2.9588e-04  3.5196e-02 -7.4600e-04 -1.0559e-05 -1.8323e-04
  -4.7347e-05]
 [ 1.0798e-04  4.4213e-05  1.1292e-02 -3.3708e-04  4.4669e-05 -3.1570e-04
  -1.2103e-06  1.1317e-04 -8.3470e-04  1.3114e-03 -2.0218e-03  3.3828e-04
   9.3465e-05  1.5538e-05  2.3724e-05  1.5480e-04 -6.2106e-04 -8.2043e-04
   1.0218e-05 -4.4496e-05  5.1197e-07  2.2324e-04  1.4079e-03 -4.0778e-01
  -4.8181e-06 -1.5861e-04 -3.7736e-04  8.6877e-05 -4.1425e-04 -6.1994e-02
   8.8006e-03]]
|P_imp-P_imp_0| =  0.02026500337167367
max(P_imp-P_imp_0) =  0.0028088963540089246
|P_bath-P_bath_0| =  0.019241672430015296
max(P_bath-P_bath_0) =  0.002880570944119046
time of total calc time : 94781.230  (cpu),  2487.537  (wall) 

Tit   = total number of iterations
Tnf   = total number of function evaluations
Tnint = total number of segments explored during Cauchy searches
Skip  = number of BFGS updates skipped
Nact  = number of active bounds at final generalized Cauchy point
Projg = norm of the final projected gradient
F     = final function value

           * * *

   N    Tit     Tnf  Tnint  Skip  Nact     Projg        F
 4278     52     73      1     0     0   9.239D-02   8.349D-02
  F =   8.3487570555629692E-002

CONVERGENCE: REL_REDUCTION_OF_F_<=_FACTR*EPSMCH             

 Cauchy                time 0.000E+00 seconds.
 Subspace minimization time 0.000E+00 seconds.
 Line search           time 0.000E+00 seconds.

 Total User time 0.000E+00 seconds.

