#INFO: **** input file is /tigress/xingz/pydmfet/examples/research/proj/Cu2/dmfet/Cu2.py ****
from pydmfet import locints, sdmfet, oep, tools, dfet_ao, proj_ao
from pydmfet.dfet_ao import dfet
from pydmfet.qcwrap.pyscf_rks_ao import rks_ao
from pyscf import gto, scf,dft, ao2mo,cc
import numpy as np
from pyscf.tools import molden, cubegen
import copy,time
from pydmfet.tools.sym import h_lattice_sym_tab
import time

t0 = (time.clock(), time.time())


bas = 'lanl2dz'
ecp = 'lanl2dz'
temp = 0.005


mol = gto.Mole()
mol.atom = open('Cu2.xyz').read()
mol.basis = bas
mol.ecp = ecp
mol.charge = -2
mol.build(max_memory = 16000, verbose=4)

mf = rks_ao(mol,smear_sigma = temp)
mf.xc = 'pbe,pbe'
mf.max_cycle = 50
mf.scf(dm0=None)


natoms = mol.natm
impAtom = np.zeros([natoms], dtype=int)
for i in range(2):
    impAtom[i] = 1

ghost_frag = 1-impAtom
ghost_env = 1-ghost_frag

mol_frag = gto.Mole()
mol_frag.atom = tools.add_ghost(mol.atom, ghost_frag)
mol_frag.basis = bas
mol_frag.ecp = ecp
mol_frag.charge = 4
mol_frag.build(max_memory = 16000,verbose = 4)

mol_env = gto.Mole()
mol_env.atom = tools.add_ghost(mol.atom, ghost_env)
mol_env.basis =  bas
mol_env.ecp = ecp
mol_env.charge = -6
mol_env.build(max_memory = 16000,verbose = 4)

Ne_frag = 34
Ne_env = 48

boundary_atoms = None
boundary_atoms2 =None

umat = None
umat = np.load("umat.npy")

params = oep.OEPparams(algorithm = 'leastsq', opt_method = 'L-BFGS-B', diffP_tol=1e-3, outer_maxit = 20)
params.options['ftol'] = 1e-9
params.options['gtol'] = 1e-3
params.options['maxiter'] = 200
params.options['svd_thresh'] = 1e-2

theDMFET = dfet.DFET(mf, mol_frag, mol_env,Ne_frag,Ne_env,\
                     boundary_atoms=boundary_atoms, boundary_atoms2=boundary_atoms2,umat = umat,\
                     oep_params=params, smear_sigma=temp, ecw_method = 'hf',mf_method = mf.xc, plot_dens=True,\
                     scf_max_cycle = 200)

umat = theDMFET.embedding_potential()

t1 = tools.timer("total calc time", t0)
#INFO: ******************** input file end ********************


System: uname_result(system='Linux', node='tiger-i25c1n24', release='3.10.0-957.27.2.el7.x86_64', version='#1 SMP Tue Jul 30 11:12:20 EDT 2019', machine='x86_64', processor='x86_64')  Threads 40
Python 3.7.0 (default, Jun 28 2018, 13:15:42) 
[GCC 7.2.0]
numpy 1.16.4  scipy 1.4.0.dev0+0f78e0f
Date: Sun Sep  8 20:37:26 2019
PySCF version 1.5
PySCF path  /home/xingz/.local/lib/python3.7/site-packages/pyscf

[CONFIG] conf_file None
[INPUT] verbose = 4
[INPUT] num. atoms = 8
[INPUT] num. electrons = 82
[INPUT] charge = -2
[INPUT] spin (= nelec alpha-beta = 2S) = 0
[INPUT] symmetry False subgroup None
[INPUT] Mole.unit = angstrom
[INPUT]  1 Cu    -0.441980000000   1.042360000000  -0.035730000000 AA   -0.835221152535   1.969774923202  -0.067519914431 Bohr
[INPUT]  2 Cu     2.942440000000   1.248890000000   0.035730000000 AA    5.560405737965   2.360060059708   0.067519914431 Bohr
[INPUT]  3 Cl    -1.897990000000  -0.682570000000   0.075050000000 AA   -3.586681287163  -1.289870360844   0.141823945649 Bohr
[INPUT]  4 Cl    -2.090880000000   2.577820000000  -0.212080000000 AA   -3.951190559331   4.871373798426  -0.400773116498 Bohr
[INPUT]  5 Cl     1.158810000000   2.690810000000  -0.136080000000 AA    2.189833530407   5.084893953241  -0.257153931031 Bohr
[INPUT]  6 Cl     1.341650000000  -0.399560000000   0.136080000000 AA    2.535351055023  -0.755058970331   0.257153931031 Bohr
[INPUT]  7 Cl     4.398440000000   2.973820000000  -0.075050000000 AA    8.311846975332   5.619705343754  -0.141823945649 Bohr
[INPUT]  8 Cl     4.591340000000  -0.286580000000   0.212080000000 AA    8.676375144761  -0.541557712778   0.400773116498 Bohr

nuclear repulsion = 451.217501293853
number of shells = 38
number of NR pGTOs = 162
number of NR cGTOs = 92
basis = lanl2dz
ecp = lanl2dz
CPU time:         4.46
rks_ao.ne_frozen =  0


******** <class 'pydmfet.qcwrap.pyscf_rks_ao.rks_ao'> flags ********
method = rks_ao-RKS-RHF
initial guess = minao
damping factor = 0
level shift factor = 0
DIIS = <class 'pyscf.scf.diis.CDIIS'>
DIIS start cycle = 1
DIIS space = 8
SCF tol = 1e-09
SCF gradient tol = None
max. SCF cycles = 50
direct_scf = False
chkfile to save SCF result = /tmp/tmp_6cj8o7e
max_memory 16000 MB (current use 68 MB)
XC functionals = pbe,pbe
small_rho_cutoff = 1e-07
radial grids: 
    Treutler-Ahlrichs (JCP 102, 346 (M4)) radial grids
    
becke partition: Becke, JCP, 88, 2547 (1988)
pruning grids: <function nwchem_prune at 0x2b8ec72e9400>
grids dens level: 3
symmetrized grids: False
atomic radii adjust function: <function treutler_atomic_radii_adjust at 0x2b8ec72e9378>
Set gradient conv threshold to 3.16228e-05
tot grids = 154128
init E= -467.462792451998
HOMO:  0.21874871437076593 LUMO:  0.22831437501941343
Fermi energy:       0.2235718634
[2.     2.     2.     2.     2.     2.     2.     2.     2.     2.
 2.     2.     2.     2.     2.     2.     2.     2.     2.     2.
 2.     2.     2.     2.     2.     2.     2.     2.     2.     2.
 2.     2.     2.     2.     2.     2.     2.     2.     2.     1.9935
 1.4481 0.5584]
entropy correction =  -0.012030461857605297
cycle= 1 E= -410.105804071394  delta_E= 57.4  |g|= 8.39  |ddm|= 25.9
HOMO:  -1.563009642072615 LUMO:  -1.5367266498378935
Fermi energy:      -1.5499972181
[2.0000e+00 2.0000e+00 2.0000e+00 2.0000e+00 2.0000e+00 2.0000e+00
 2.0000e+00 2.0000e+00 2.0000e+00 2.0000e+00 2.0000e+00 2.0000e+00
 2.0000e+00 2.0000e+00 2.0000e+00 2.0000e+00 2.0000e+00 2.0000e+00
 2.0000e+00 2.0000e+00 2.0000e+00 2.0000e+00 2.0000e+00 2.0000e+00
 2.0000e+00 2.0000e+00 2.0000e+00 2.0000e+00 2.0000e+00 2.0000e+00
 2.0000e+00 2.0000e+00 2.0000e+00 2.0000e+00 2.0000e+00 2.0000e+00
 2.0000e+00 2.0000e+00 2.0000e+00 1.9796e+00 1.8620e+00 1.3147e-01
 2.6598e-02 2.7833e-04]
entropy correction =  -0.006223922518915031
cycle= 2 E= -401.53861221343  delta_E= 8.57  |g|= 7.31  |ddm|= 29.4
HOMO:  -0.13457902039487168 LUMO:  -0.05948338425680177
Fermi energy:      -0.0972415566
[2.0000e+00 2.0000e+00 2.0000e+00 2.0000e+00 2.0000e+00 2.0000e+00
 2.0000e+00 2.0000e+00 2.0000e+00 2.0000e+00 2.0000e+00 2.0000e+00
 2.0000e+00 2.0000e+00 2.0000e+00 2.0000e+00 2.0000e+00 2.0000e+00
 2.0000e+00 2.0000e+00 2.0000e+00 2.0000e+00 2.0000e+00 2.0000e+00
 2.0000e+00 2.0000e+00 2.0000e+00 2.0000e+00 2.0000e+00 2.0000e+00
 2.0000e+00 2.0000e+00 2.0000e+00 2.0000e+00 2.0000e+00 2.0000e+00
 2.0000e+00 2.0000e+00 2.0000e+00 2.0000e+00 1.9989e+00 1.0500e-03]
entropy correction =  -9.86246310849622e-05
cycle= 3 E= -466.993953695778  delta_E= -65.5  |g|= 5.85  |ddm|= 17.5
HOMO:  -0.19632377953859495 LUMO:  -0.1959779127415958
Fermi energy:      -0.1928443984
[2.     2.     2.     2.     2.     2.     2.     2.     2.     2.
 2.     2.     2.     2.     2.     2.     2.     2.     2.     2.
 2.     2.     2.     2.     2.     2.     2.     2.     2.     2.
 2.     2.     1.9998 1.9993 1.9979 1.9965 1.9471 1.9432 1.7416 1.7367
 1.3345 1.3035]
entropy correction =  -0.02333743947619097
cycle= 4 E= -479.585920348137  delta_E= -12.6  |g|= 3.08  |ddm|=   11
HOMO:  -0.059338273871696164 LUMO:  -0.05834657233047479
Fermi energy:      -0.0587610219
[2.     2.     2.     2.     2.     2.     2.     2.     2.     2.
 2.     2.     2.     2.     2.     2.     2.     2.     2.     2.
 2.     2.     2.     2.     2.     2.     2.     2.     2.     2.
 2.     2.     2.     2.     2.     2.     2.     2.     1.9952 1.9886
 1.0577 0.9586]
entropy correction =  -0.01435902943114782
cycle= 5 E= -480.692882283188  delta_E= -1.11  |g|= 2.31  |ddm|= 2.58
HOMO:  -0.089145549805888 LUMO:  -0.08619386496822946
Fermi energy:      -0.0862274399
[2.     2.     2.     2.     2.     2.     2.     2.     2.     2.
 2.     2.     2.     2.     2.     2.     2.     2.     2.     2.
 2.     2.     2.     2.     2.     2.     2.     2.     2.     2.
 2.     2.     2.     1.9996 1.9996 1.9987 1.9985 1.9947 1.9796 1.7489
 1.2838 0.9966]
entropy correction =  -0.018143353044552443
cycle= 6 E= -481.537345800991  delta_E= -0.844  |g|= 1.68  |ddm|= 1.24
HOMO:  -0.036723945372841904 LUMO:  -0.036666919252356114
Fermi energy:      -0.0355754632
[2.     2.     2.     2.     2.     2.     2.     2.     2.     2.
 2.     2.     2.     2.     2.     2.     2.     2.     2.     2.
 2.     2.     2.     2.     2.     2.     2.     2.     2.     2.
 2.     2.     1.9994 1.9978 1.9955 1.9897 1.9852 1.9687 1.9249 1.9157
 1.1143 1.1087]
entropy correction =  -0.018924041241958466
cycle= 7 E= -481.434005675673  delta_E= 0.103  |g|= 1.83  |ddm|= 1.23
HOMO:  -0.03173842005109033 LUMO:  -0.028304041170029538
Fermi energy:      -0.0293123723
[2.     2.     2.     2.     2.     2.     2.     2.     2.     2.
 2.     2.     2.     2.     2.     2.     2.     2.     2.     2.
 2.     2.     2.     2.     2.     2.     2.     2.     2.     2.
 2.     2.     1.9999 1.9995 1.9994 1.9991 1.9991 1.9983 1.9857 1.8815
 1.238  0.8995]
entropy correction =  -0.016403779535501387
cycle= 8 E= -481.849488238146  delta_E= -0.415  |g|= 1.29  |ddm|= 1.31
HOMO:  -0.010333376748575963 LUMO:  0.0007074607305956736
Fermi energy:      -0.0039251597
[2.     2.     2.     2.     2.     2.     2.     2.     2.     2.
 2.     2.     2.     2.     2.     2.     2.     2.     2.     2.
 2.     2.     2.     2.     2.     2.     2.     2.     2.     2.
 2.     1.9993 1.9989 1.9983 1.9929 1.9922 1.9893 1.984  1.9793 1.9331
 1.5655 0.5673]
entropy correction =  -0.014677098352458864
cycle= 9 E= -482.044475986813  delta_E= -0.195  |g|= 1.07  |ddm|= 0.906
HOMO:  0.06987607243241516 LUMO:  0.08736480530321322
Fermi energy:       0.0786614214
[2.     2.     2.     2.     2.     2.     2.     2.     2.     2.
 2.     2.     2.     2.     2.     2.     2.     2.     2.     2.
 2.     2.     2.     2.     2.     2.     2.     2.     2.     2.
 2.     2.     2.     2.     2.     2.     1.9997 1.9996 1.9983 1.9983
 1.7057 0.2985]
entropy correction =  -0.008565034011284204
cycle= 10 E= -482.0325818758  delta_E= 0.0119  |g|= 0.915  |ddm|= 1.43
HOMO:  0.08962837481527308 LUMO:  0.13004696662071474
Fermi energy:       0.1120849791
[2.     2.     2.     2.     2.     2.     2.     2.     2.     2.
 2.     2.     2.     2.     2.     2.     2.     2.     2.     2.
 2.     2.     2.     2.     2.     2.     2.     2.     2.     2.
 2.     2.     2.     2.     2.     2.     2.     1.9948 1.9914 1.9824
 1.9778 0.0536]
entropy correction =  -0.002806384774933331
cycle= 11 E= -481.373880258551  delta_E= 0.659  |g|=  1.9  |ddm|= 2.31
HOMO:  0.055026470075352184 LUMO:  0.06384159087208002
Fermi energy:       0.0595089658
[2.     2.     2.     2.     2.     2.     2.     2.     2.     2.
 2.     2.     2.     2.     2.     2.     2.     2.     2.     2.
 2.     2.     2.     2.     2.     2.     2.     2.     2.     2.
 2.     2.     2.     1.9999 1.9995 1.9994 1.9993 1.9992 1.9982 1.992
 1.4205 0.592 ]
entropy correction =  -0.012547716277723015
cycle= 12 E= -482.271816529408  delta_E= -0.898  |g|= 0.277  |ddm|= 1.34
HOMO:  0.056438609504079966 LUMO:  0.07796708276626367
Fermi energy:       0.0675524746
[2.     2.     2.     2.     2.     2.     2.     2.     2.     2.
 2.     2.     2.     2.     2.     2.     2.     2.     2.     2.
 2.     2.     2.     2.     2.     2.     2.     2.     2.     2.
 2.     2.     2.     2.     2.     2.     1.9977 1.9957 1.995  1.9855
 1.8046 0.2215]
entropy correction =  -0.007530677354931723
cycle= 13 E= -482.060208342511  delta_E= 0.212  |g|= 0.773  |ddm|= 1.43
HOMO:  0.05617821662962029 LUMO:  0.06568034711289888
Fermi energy:       0.0610293925
[2.     2.     2.     2.     2.     2.     2.     2.     2.     2.
 2.     2.     2.     2.     2.     2.     2.     2.     2.     2.
 2.     2.     2.     2.     2.     2.     2.     2.     2.     2.
 2.     2.     1.9999 1.9998 1.9994 1.9992 1.9992 1.999  1.9978 1.9895
 1.4503 0.5658]
entropy correction =  -0.012402978279444055
cycle= 14 E= -482.267546249702  delta_E= -0.207  |g|= 0.281  |ddm|= 0.726
HOMO:  0.0593011259720427 LUMO:  0.06695698251076229
Fermi energy:       0.0631998465
[2.     2.     2.     2.     2.     2.     2.     2.     2.     2.
 2.     2.     2.     2.     2.     2.     2.     2.     2.     2.
 2.     2.     2.     2.     2.     2.     2.     2.     2.     2.
 2.     2.     1.9999 1.9998 1.9994 1.9994 1.9994 1.9993 1.9984 1.9921
 1.3712 0.641 ]
entropy correction =  -0.012948192696930386
cycle= 15 E= -482.288830977942  delta_E= -0.0213  |g|= 0.142  |ddm|= 0.204
HOMO:  0.0603351895789872 LUMO:  0.0685498297238077
Fermi energy:       0.0644944493
[2.     2.     2.     2.     2.     2.     2.     2.     2.     2.
 2.     2.     2.     2.     2.     2.     2.     2.     2.     2.
 2.     2.     2.     2.     2.     2.     2.     2.     2.     2.
 2.     2.     2.     1.9998 1.9996 1.9995 1.9994 1.9994 1.9988 1.9946
 1.3935 0.6153]
entropy correction =  -0.012649979499320854
cycle= 16 E= -482.286904601356  delta_E= 0.00193  |g|= 0.167  |ddm|= 0.0792
HOMO:  0.0602594172277193 LUMO:  0.06764775012298793
Fermi energy:       0.0640073155
[2.     2.     2.     2.     2.     2.     2.     2.     2.     2.
 2.     2.     2.     2.     2.     2.     2.     2.     2.     2.
 2.     2.     2.     2.     2.     2.     2.     2.     2.     2.
 2.     2.     2.     1.9998 1.9996 1.9995 1.9994 1.9992 1.9991 1.9941
 1.3582 0.6512]
entropy correction =  -0.012946747452258512
cycle= 17 E= -482.294507326534  delta_E= -0.0076  |g|= 0.0877  |ddm|= 0.123
HOMO:  0.06084883360465367 LUMO:  0.06807282694021022
Fermi energy:       0.0645100754
[2.     2.     2.     2.     2.     2.     2.     2.     2.     2.
 2.     2.     2.     2.     2.     2.     2.     2.     2.     2.
 2.     2.     2.     2.     2.     2.     2.     2.     2.     2.
 2.     2.     2.     1.9998 1.9996 1.9995 1.9995 1.9993 1.9991 1.9946
 1.3506 0.6581]
entropy correction =  -0.012975286933653603
cycle= 18 E= -482.296571538169  delta_E= -0.00206  |g|= 0.0329  |ddm|= 0.0713
HOMO:  0.06113391112620572 LUMO:  0.0683567658583724
Fermi energy:       0.0647923579
[2.     2.     2.     2.     2.     2.     2.     2.     2.     2.
 2.     2.     2.     2.     2.     2.     2.     2.     2.     2.
 2.     2.     2.     2.     2.     2.     2.     2.     2.     2.
 2.     2.     2.     1.9998 1.9996 1.9995 1.9995 1.9993 1.9992 1.9949
 1.3504 0.6579]
entropy correction =  -0.012962825254644253
cycle= 19 E= -482.296935691004  delta_E= -0.000364  |g|= 0.0135  |ddm|= 0.0338
HOMO:  0.061197307282320416 LUMO:  0.06843033123446866
Fermi energy:       0.0648595294
[2.     2.     2.     2.     2.     2.     2.     2.     2.     2.
 2.     2.     2.     2.     2.     2.     2.     2.     2.     2.
 2.     2.     2.     2.     2.     2.     2.     2.     2.     2.
 2.     2.     2.     1.9998 1.9996 1.9995 1.9995 1.9993 1.9992 1.995
 1.3507 0.6574]
entropy correction =  -0.012951982824312803
cycle= 20 E= -482.296785655089  delta_E= 0.00015  |g|= 0.0243  |ddm|= 0.0548
HOMO:  0.06124454865393186 LUMO:  0.0684455246871871
Fermi energy:       0.0648915484
[2.     2.     2.     2.     2.     2.     2.     2.     2.     2.
 2.     2.     2.     2.     2.     2.     2.     2.     2.     2.
 2.     2.     2.     2.     2.     2.     2.     2.     2.     2.
 2.     2.     2.     1.9998 1.9996 1.9995 1.9995 1.9993 1.9992 1.9949
 1.3493 0.6588]
entropy correction =  -0.012967051103333103
cycle= 21 E= -482.297009057674  delta_E= -0.000223  |g|= 0.00164  |ddm|= 0.0331
HOMO:  0.061224146348174045 LUMO:  0.0684204277850461
Fermi energy:       0.0648688810
[2.     2.     2.     2.     2.     2.     2.     2.     2.     2.
 2.     2.     2.     2.     2.     2.     2.     2.     2.     2.
 2.     2.     2.     2.     2.     2.     2.     2.     2.     2.
 2.     2.     2.     1.9998 1.9996 1.9995 1.9995 1.9993 1.9992 1.9949
 1.3491 0.6591]
entropy correction =  -0.01296907962011658
cycle= 22 E= -482.29701023436  delta_E= -1.18e-06  |g|= 0.000475  |ddm|= 0.0031
HOMO:  0.06121653587097292 LUMO:  0.06841620980235635
Fermi energy:       0.0648628034
[2.     2.     2.     2.     2.     2.     2.     2.     2.     2.
 2.     2.     2.     2.     2.     2.     2.     2.     2.     2.
 2.     2.     2.     2.     2.     2.     2.     2.     2.     2.
 2.     2.     2.     1.9998 1.9996 1.9995 1.9995 1.9993 1.9992 1.9949
 1.3493 0.6589]
entropy correction =  -0.012967028929332396
cycle= 23 E= -482.297010284206  delta_E= -4.98e-08  |g|= 0.000306  |ddm|= 0.000873
HOMO:  0.06121217248652754 LUMO:  0.06841131151284567
Fermi energy:       0.0648582839
[2.     2.     2.     2.     2.     2.     2.     2.     2.     2.
 2.     2.     2.     2.     2.     2.     2.     2.     2.     2.
 2.     2.     2.     2.     2.     2.     2.     2.     2.     2.
 2.     2.     2.     1.9998 1.9996 1.9995 1.9995 1.9993 1.9992 1.9949
 1.3493 0.6589]
entropy correction =  -0.01296784487414635
cycle= 24 E= -482.297010287939  delta_E= -3.73e-09  |g|= 0.000268  |ddm|= 0.000349
HOMO:  0.06121147137421426 LUMO:  0.06841074844290043
Fermi energy:       0.0648576491
[2.     2.     2.     2.     2.     2.     2.     2.     2.     2.
 2.     2.     2.     2.     2.     2.     2.     2.     2.     2.
 2.     2.     2.     2.     2.     2.     2.     2.     2.     2.
 2.     2.     2.     1.9998 1.9996 1.9995 1.9995 1.9993 1.9992 1.9949
 1.3493 0.6589]
entropy correction =  -0.012967784457156618
cycle= 25 E= -482.297010314491  delta_E= -2.66e-08  |g|= 2.89e-05  |ddm|= 0.000432
HOMO:  0.061211083515798084 LUMO:  0.06841037897365551
Fermi energy:       0.0648572733
[2.     2.     2.     2.     2.     2.     2.     2.     2.     2.
 2.     2.     2.     2.     2.     2.     2.     2.     2.     2.
 2.     2.     2.     2.     2.     2.     2.     2.     2.     2.
 2.     2.     2.     1.9998 1.9996 1.9995 1.9995 1.9993 1.9992 1.9949
 1.3493 0.6589]
entropy correction =  -0.012967794882220902
cycle= 26 E= -482.297010314762  delta_E= -2.71e-10  |g|= 6.77e-06  |ddm|= 3.23e-05
HOMO:  0.06121112483105248 LUMO:  0.06841041305905483
Fermi energy:       0.0648573123
[2.     2.     2.     2.     2.     2.     2.     2.     2.     2.
 2.     2.     2.     2.     2.     2.     2.     2.     2.     2.
 2.     2.     2.     2.     2.     2.     2.     2.     2.     2.
 2.     2.     2.     1.9998 1.9996 1.9995 1.9995 1.9993 1.9992 1.9949
 1.3493 0.6589]
entropy correction =  -0.012967804444704887
Extra cycle  E= -482.297010308471  delta_E= 6.29e-09  |g|= 0.000137  |ddm|= 0.000194
converged SCF energy = -482.297010308471
#INFO: **** input file is /tigress/xingz/pydmfet/examples/research/proj/Cu2/dmfet/Cu2.py ****
from pydmfet import locints, sdmfet, oep, tools, dfet_ao, proj_ao
from pydmfet.dfet_ao import dfet
from pydmfet.qcwrap.pyscf_rks_ao import rks_ao
from pyscf import gto, scf,dft, ao2mo,cc
import numpy as np
from pyscf.tools import molden, cubegen
import copy,time
from pydmfet.tools.sym import h_lattice_sym_tab
import time

t0 = (time.clock(), time.time())


bas = 'lanl2dz'
ecp = 'lanl2dz'
temp = 0.005


mol = gto.Mole()
mol.atom = open('Cu2.xyz').read()
mol.basis = bas
mol.ecp = ecp
mol.charge = -2
mol.build(max_memory = 16000, verbose=4)

mf = rks_ao(mol,smear_sigma = temp)
mf.xc = 'pbe,pbe'
mf.max_cycle = 50
mf.scf(dm0=None)


natoms = mol.natm
impAtom = np.zeros([natoms], dtype=int)
for i in range(2):
    impAtom[i] = 1

ghost_frag = 1-impAtom
ghost_env = 1-ghost_frag

mol_frag = gto.Mole()
mol_frag.atom = tools.add_ghost(mol.atom, ghost_frag)
mol_frag.basis = bas
mol_frag.ecp = ecp
mol_frag.charge = 4
mol_frag.build(max_memory = 16000,verbose = 4)

mol_env = gto.Mole()
mol_env.atom = tools.add_ghost(mol.atom, ghost_env)
mol_env.basis =  bas
mol_env.ecp = ecp
mol_env.charge = -6
mol_env.build(max_memory = 16000,verbose = 4)

Ne_frag = 34
Ne_env = 48

boundary_atoms = None
boundary_atoms2 =None

umat = None
umat = np.load("umat.npy")

params = oep.OEPparams(algorithm = 'leastsq', opt_method = 'L-BFGS-B', diffP_tol=1e-3, outer_maxit = 20)
params.options['ftol'] = 1e-9
params.options['gtol'] = 1e-3
params.options['maxiter'] = 200
params.options['svd_thresh'] = 1e-2

theDMFET = dfet.DFET(mf, mol_frag, mol_env,Ne_frag,Ne_env,\
                     boundary_atoms=boundary_atoms, boundary_atoms2=boundary_atoms2,umat = umat,\
                     oep_params=params, smear_sigma=temp, ecw_method = 'hf',mf_method = mf.xc, plot_dens=True,\
                     scf_max_cycle = 200)

umat = theDMFET.embedding_potential()

t1 = tools.timer("total calc time", t0)
#INFO: ******************** input file end ********************


System: uname_result(system='Linux', node='tiger-i25c1n24', release='3.10.0-957.27.2.el7.x86_64', version='#1 SMP Tue Jul 30 11:12:20 EDT 2019', machine='x86_64', processor='x86_64')  Threads 40
Python 3.7.0 (default, Jun 28 2018, 13:15:42) 
[GCC 7.2.0]
numpy 1.16.4  scipy 1.4.0.dev0+0f78e0f
Date: Sun Sep  8 20:37:50 2019
PySCF version 1.5
PySCF path  /home/xingz/.local/lib/python3.7/site-packages/pyscf

[CONFIG] conf_file None
[INPUT] verbose = 4
[INPUT] num. atoms = 8
[INPUT] num. electrons = 34
[INPUT] charge = 4
[INPUT] spin (= nelec alpha-beta = 2S) = 0
[INPUT] symmetry False subgroup None
[INPUT] Mole.unit = angstrom
[INPUT]  1 Cu    -0.441980000000   1.042360000000  -0.035730000000 AA   -0.835221152535   1.969774923202  -0.067519914431 Bohr
[INPUT]  2 Cu     2.942440000000   1.248890000000   0.035730000000 AA    5.560405737965   2.360060059708   0.067519914431 Bohr
[INPUT]  3 GHOST-Cl  -1.897990000000  -0.682570000000   0.075050000000 AA   -3.586681287163  -1.289870360844   0.141823945649 Bohr
[INPUT]  4 GHOST-Cl  -2.090880000000   2.577820000000  -0.212080000000 AA   -3.951190559331   4.871373798426  -0.400773116498 Bohr
[INPUT]  5 GHOST-Cl   1.158810000000   2.690810000000  -0.136080000000 AA    2.189833530407   5.084893953241  -0.257153931031 Bohr
[INPUT]  6 GHOST-Cl   1.341650000000  -0.399560000000   0.136080000000 AA    2.535351055023  -0.755058970331   0.257153931031 Bohr
[INPUT]  7 GHOST-Cl   4.398440000000   2.973820000000  -0.075050000000 AA    8.311846975332   5.619705343754  -0.141823945649 Bohr
[INPUT]  8 GHOST-Cl   4.591340000000  -0.286580000000   0.212080000000 AA    8.676375144761  -0.541557712778   0.400773116498 Bohr

nuclear repulsion = 56.3275059639967
number of shells = 38
number of NR pGTOs = 162
number of NR cGTOs = 92
basis = lanl2dz
ecp = lanl2dz
CPU time:       589.63
#INFO: **** input file is /tigress/xingz/pydmfet/examples/research/proj/Cu2/dmfet/Cu2.py ****
from pydmfet import locints, sdmfet, oep, tools, dfet_ao, proj_ao
from pydmfet.dfet_ao import dfet
from pydmfet.qcwrap.pyscf_rks_ao import rks_ao
from pyscf import gto, scf,dft, ao2mo,cc
import numpy as np
from pyscf.tools import molden, cubegen
import copy,time
from pydmfet.tools.sym import h_lattice_sym_tab
import time

t0 = (time.clock(), time.time())


bas = 'lanl2dz'
ecp = 'lanl2dz'
temp = 0.005


mol = gto.Mole()
mol.atom = open('Cu2.xyz').read()
mol.basis = bas
mol.ecp = ecp
mol.charge = -2
mol.build(max_memory = 16000, verbose=4)

mf = rks_ao(mol,smear_sigma = temp)
mf.xc = 'pbe,pbe'
mf.max_cycle = 50
mf.scf(dm0=None)


natoms = mol.natm
impAtom = np.zeros([natoms], dtype=int)
for i in range(2):
    impAtom[i] = 1

ghost_frag = 1-impAtom
ghost_env = 1-ghost_frag

mol_frag = gto.Mole()
mol_frag.atom = tools.add_ghost(mol.atom, ghost_frag)
mol_frag.basis = bas
mol_frag.ecp = ecp
mol_frag.charge = 4
mol_frag.build(max_memory = 16000,verbose = 4)

mol_env = gto.Mole()
mol_env.atom = tools.add_ghost(mol.atom, ghost_env)
mol_env.basis =  bas
mol_env.ecp = ecp
mol_env.charge = -6
mol_env.build(max_memory = 16000,verbose = 4)

Ne_frag = 34
Ne_env = 48

boundary_atoms = None
boundary_atoms2 =None

umat = None
umat = np.load("umat.npy")

params = oep.OEPparams(algorithm = 'leastsq', opt_method = 'L-BFGS-B', diffP_tol=1e-3, outer_maxit = 20)
params.options['ftol'] = 1e-9
params.options['gtol'] = 1e-3
params.options['maxiter'] = 200
params.options['svd_thresh'] = 1e-2

theDMFET = dfet.DFET(mf, mol_frag, mol_env,Ne_frag,Ne_env,\
                     boundary_atoms=boundary_atoms, boundary_atoms2=boundary_atoms2,umat = umat,\
                     oep_params=params, smear_sigma=temp, ecw_method = 'hf',mf_method = mf.xc, plot_dens=True,\
                     scf_max_cycle = 200)

umat = theDMFET.embedding_potential()

t1 = tools.timer("total calc time", t0)
#INFO: ******************** input file end ********************


System: uname_result(system='Linux', node='tiger-i25c1n24', release='3.10.0-957.27.2.el7.x86_64', version='#1 SMP Tue Jul 30 11:12:20 EDT 2019', machine='x86_64', processor='x86_64')  Threads 40
Python 3.7.0 (default, Jun 28 2018, 13:15:42) 
[GCC 7.2.0]
numpy 1.16.4  scipy 1.4.0.dev0+0f78e0f
Date: Sun Sep  8 20:37:50 2019
PySCF version 1.5
PySCF path  /home/xingz/.local/lib/python3.7/site-packages/pyscf

[CONFIG] conf_file None
[INPUT] verbose = 4
[INPUT] num. atoms = 8
[INPUT] num. electrons = 48
[INPUT] charge = -6
[INPUT] spin (= nelec alpha-beta = 2S) = 0
[INPUT] symmetry False subgroup None
[INPUT] Mole.unit = angstrom
[INPUT]  1 GHOST-Cu  -0.441980000000   1.042360000000  -0.035730000000 AA   -0.835221152535   1.969774923202  -0.067519914431 Bohr
[INPUT]  2 GHOST-Cu   2.942440000000   1.248890000000   0.035730000000 AA    5.560405737965   2.360060059708   0.067519914431 Bohr
[INPUT]  3 Cl    -1.897990000000  -0.682570000000   0.075050000000 AA   -3.586681287163  -1.289870360844   0.141823945649 Bohr
[INPUT]  4 Cl    -2.090880000000   2.577820000000  -0.212080000000 AA   -3.951190559331   4.871373798426  -0.400773116498 Bohr
[INPUT]  5 Cl     1.158810000000   2.690810000000  -0.136080000000 AA    2.189833530407   5.084893953241  -0.257153931031 Bohr
[INPUT]  6 Cl     1.341650000000  -0.399560000000   0.136080000000 AA    2.535351055023  -0.755058970331   0.257153931031 Bohr
[INPUT]  7 Cl     4.398440000000   2.973820000000  -0.075050000000 AA    8.311846975332   5.619705343754  -0.141823945649 Bohr
[INPUT]  8 Cl     4.591340000000  -0.286580000000   0.212080000000 AA    8.676375144761  -0.541557712778   0.400773116498 Bohr

nuclear repulsion = 93.9042733852809
number of shells = 38
number of NR pGTOs = 162
number of NR cGTOs = 92
basis = lanl2dz
ecp = lanl2dz
CPU time:       590.07


******** <class 'pydmfet.dfet_ao.scf.EmbedSCF'> flags ********
method = EmbedSCF-RKS-RHF
initial guess = minao
damping factor = 0
level shift factor = 0
DIIS = <class 'pyscf.scf.diis.CDIIS'>
DIIS start cycle = 1
DIIS space = 8
SCF tol = 1e-09
SCF gradient tol = None
max. SCF cycles = 200
direct_scf = False
chkfile to save SCF result = /tmp/tmpnfsj01tz
max_memory 16000 MB (current use 516 MB)
XC functionals = pbe,pbe
small_rho_cutoff = 1e-07
radial grids: 
    Treutler-Ahlrichs (JCP 102, 346 (M4)) radial grids
    
becke partition: Becke, JCP, 88, 2547 (1988)
pruning grids: <function nwchem_prune at 0x2b8ec72e9400>
grids dens level: 3
symmetrized grids: False
atomic radii adjust function: <function treutler_atomic_radii_adjust at 0x2b8ec72e9378>
Set gradient conv threshold to 3.16228e-05
tot grids = 120648
init E= -388.445109439261
HOMO: 0.1471671698884096 LUMO: 0.18247460185870049
mo_energy:
[-2.7092 -2.6689 -1.2979 -1.2843 -1.2809 -1.2724 -1.2717 -1.2617 -0.2031
 -0.189  -0.0751 -0.0146  0.0131  0.0281  0.0472  0.0668  0.1472  0.1825
  0.187   0.198   0.2042  0.2824]
e_fermi =  0.16383609944160815
[2.    2.    2.    2.    2.    2.    2.    2.    2.    2.    2.    2.
 2.    2.    2.    2.    1.931 0.047 0.019 0.002]
entropy correction =  -0.0032636470900128623
cycle= 1 E= -328.761430922518  delta_E= 59.7  |g|= 10.7  |ddm|= 8.02
HOMO: -8.397599087631143 LUMO: -8.325916848135234
mo_energy:
[-12.786 -12.742 -11.119 -11.095 -11.092 -11.089 -11.063 -11.05   -8.439
  -8.436  -8.428  -8.423  -8.421  -8.419  -8.418  -8.414  -8.398  -8.326
  -3.12   -3.075  -2.507  -2.316]
e_fermi =  -8.361557965737981
[2.000e+00 2.000e+00 2.000e+00 2.000e+00 2.000e+00 2.000e+00 2.000e+00
 2.000e+00 2.000e+00 2.000e+00 2.000e+00 2.000e+00 2.000e+00 2.000e+00
 2.000e+00 2.000e+00 1.999e+00 1.603e-03]
entropy correction =  -0.00013343233339093937
cycle= 2 E= -385.96359652425  delta_E= -57.2  |g|= 4.44  |ddm|= 8.38
HOMO: -2.208243170528238 LUMO: -2.2049896534273916
mo_energy:
[-6.22  -6.179 -4.772 -4.755 -4.746 -4.739 -4.675 -4.659 -2.243 -2.239
 -2.238 -2.22  -2.219 -2.217 -2.215 -2.209 -2.208 -2.205 -1.548 -1.527
 -1.147 -1.097]
e_fermi =  -2.202356000781161
[2.    2.    2.    2.    2.    2.    2.    2.    1.999 1.999 1.998 1.948
 1.929 1.895 1.864 1.582 1.529 1.257]
entropy correction =  -0.024628128382886784
cycle= 3 E= -390.423883824929  delta_E= -4.46  |g|= 1.19  |ddm|= 3.42
HOMO: -1.4502130284492212 LUMO: -1.4483741540358586
mo_energy:
[-5.89  -5.374 -4.446 -4.396 -4.394 -3.927 -3.901 -3.9   -1.962 -1.949
 -1.945 -1.89  -1.877 -1.506 -1.49  -1.488 -1.45  -1.448 -1.38  -1.244
 -0.971 -0.964]
e_fermi =  -1.4492862558848785
[2.    2.    2.    2.    2.    2.    2.    2.    2.    2.    2.    2.
 2.    2.    1.999 1.999 1.092 0.909]
entropy correction =  -0.013844363440889736
cycle= 4 E= -389.360512634461  delta_E= 1.06  |g|= 2.43  |ddm|= 1.62
HOMO: -1.645883251410671 LUMO: -1.6389190900178203
mo_energy:
[-5.632 -5.59  -4.163 -4.156 -4.148 -4.14  -4.122 -4.114 -1.708 -1.698
 -1.696 -1.693 -1.692 -1.691 -1.669 -1.661 -1.646 -1.639 -1.314 -1.293
 -0.958 -0.947]
e_fermi =  -1.6420795696053059
[2.    2.    2.    2.    2.    2.    2.    2.    2.    2.    2.    2.
 2.    2.    1.99  1.953 1.363 0.694]
entropy correction =  -0.014157394067801263
cycle= 5 E= -389.931514868247  delta_E= -0.571  |g|= 1.46  |ddm|= 1.86
HOMO: -1.5400171446519864 LUMO: -1.5320443140455196
mo_energy:
[-5.752 -5.466 -4.329 -4.321 -4.185 -4.032 -4.026 -3.938 -1.846 -1.831
 -1.791 -1.789 -1.768 -1.568 -1.563 -1.542 -1.54  -1.532 -1.347 -1.248
 -0.962 -0.957]
e_fermi =  -1.5339520442049186
[2.    2.    2.    2.    2.    2.    2.    2.    2.    2.    2.    2.
 2.    1.998 1.994 1.655 1.542 0.812]
entropy correction =  -0.017016533184322006
cycle= 6 E= -389.648224415171  delta_E= 0.283  |g|=  1.9  |ddm|= 1.76
HOMO: -1.5966784205530715 LUMO: -1.5911404483263512
mo_energy:
[-5.719 -5.526 -4.292 -4.284 -4.159 -4.068 -4.067 -4.042 -1.81  -1.797
 -1.761 -1.76  -1.741 -1.61  -1.609 -1.608 -1.597 -1.591 -1.333 -1.268
 -0.96  -0.952]
e_fermi =  -1.592695581640701
[2.    2.    2.    2.    2.    2.    2.    2.    2.    2.    2.    2.
 2.    1.944 1.923 1.909 1.378 0.846]
entropy correction =  -0.01777184214768699
cycle= 7 E= -389.762081837365  delta_E= -0.114  |g|= 1.75  |ddm|= 1.55
HOMO: -1.6649643484604923 LUMO: -1.6587076717208176
mo_energy:
[-5.67  -5.597 -4.246 -4.235 -4.156 -4.152 -4.1   -4.082 -1.766 -1.754
 -1.71  -1.708 -1.687 -1.681 -1.672 -1.666 -1.665 -1.659 -1.316 -1.288
 -0.96  -0.95 ]
e_fermi =  -1.6588515771523946
[2.    2.    2.    2.    2.    2.    2.    2.    2.    2.    2.    2.
 1.993 1.976 1.864 1.636 1.545 0.986]
entropy correction =  -0.02041322796838335
cycle= 8 E= -389.822469833206  delta_E= -0.0604  |g|= 1.56  |ddm|= 1.39
HOMO: -1.6540361258843144 LUMO: -1.6338832035874475
mo_energy:
[-5.684 -5.601 -4.22  -4.214 -4.196 -4.178 -4.177 -4.039 -1.748 -1.746
 -1.743 -1.728 -1.72  -1.713 -1.701 -1.657 -1.654 -1.634 -1.322 -1.286
 -0.961 -0.951]
e_fermi =  -1.6425710030884237
[2.    2.    2.    2.    2.    2.    2.    2.    2.    2.    2.    2.
 2.    2.    2.    1.884 1.817 0.299]
entropy correction =  -0.009498118980342902
cycle= 9 E= -389.751639770331  delta_E= 0.0708  |g|= 1.59  |ddm|= 1.82
HOMO: -1.6823674991816069 LUMO: -1.6695332130846716
mo_energy:
[-5.69  -5.619 -4.224 -4.218 -4.203 -4.181 -4.181 -4.091 -1.753 -1.751
 -1.748 -1.731 -1.723 -1.711 -1.7   -1.684 -1.682 -1.67  -1.322 -1.292
 -0.962 -0.952]
e_fermi =  -1.6739649646035533
[2.    2.    2.    2.    2.    2.    2.    2.    2.    2.    2.    2.
 2.    1.999 1.99  1.742 1.686 0.584]
entropy correction =  -0.014606552186442412
cycle= 10 E= -389.766662884577  delta_E= -0.015  |g|= 1.58  |ddm|= 0.299
HOMO: -1.7072485652782539 LUMO: -1.6974212518360887
mo_energy:
[-5.689 -5.635 -4.215 -4.21  -4.207 -4.183 -4.179 -4.146 -1.755 -1.75
 -1.746 -1.72  -1.712 -1.711 -1.71  -1.71  -1.707 -1.697 -1.321 -1.297
 -0.963 -0.952]
e_fermi =  -1.6981482574053444
[2.    2.    2.    2.    2.    2.    2.    2.    2.    2.    2.    1.973
 1.876 1.845 1.831 1.827 1.721 0.927]
entropy correction =  -0.02256999633674064
cycle= 11 E= -390.119204650795  delta_E= -0.353  |g|= 1.28  |ddm|= 1.46
HOMO: -1.5288357339225795 LUMO: -1.5226913815539835
mo_energy:
[-5.771 -5.453 -4.313 -4.308 -4.273 -4.018 -4.008 -3.931 -1.828 -1.828
 -1.827 -1.824 -1.811 -1.554 -1.547 -1.534 -1.529 -1.523 -1.356 -1.245
 -0.963 -0.958]
e_fermi =  -1.5241870501839851
[2.    2.    2.    2.    2.    2.    2.    2.    2.    2.    2.    2.
 2.    1.995 1.98  1.74  1.434 0.852]
entropy correction =  -0.01738693227822326
cycle= 12 E= -389.619328698026  delta_E=  0.5  |g|= 1.97  |ddm|= 1.57
HOMO: -1.5525906633598727 LUMO: -1.5474884720035282
mo_energy:
[-5.747 -5.47  -4.291 -4.285 -4.245 -4.017 -4.014 -3.977 -1.805 -1.805
 -1.804 -1.803 -1.792 -1.556 -1.555 -1.555 -1.553 -1.547 -1.349 -1.252
 -0.962 -0.955]
e_fermi =  -1.5457346845879931
[2.    2.    2.    2.    2.    2.    2.    2.    2.    2.    2.    2.
 2.    1.758 1.74  1.733 1.595 1.174]
entropy correction =  -0.02329820861314475
cycle= 13 E= -389.714184169703  delta_E= -0.0949  |g|= 1.89  |ddm|= 1.12
HOMO: -1.5453507126337866 LUMO: -1.5421142864276873
mo_energy:
[-5.73  -5.486 -4.266 -4.254 -4.251 -4.03  -4.028 -3.999 -1.81  -1.802
 -1.8   -1.766 -1.756 -1.595 -1.588 -1.573 -1.545 -1.542 -1.344 -1.26
 -0.96  -0.952]
e_fermi =  -1.5436998766620535
[2.    2.    2.    2.    2.    2.    2.    2.    2.    2.    2.    2.
 2.    2.    2.    1.994 1.164 0.843]
entropy correction =  -0.013826304836695221
cycle= 14 E= -389.70913242612  delta_E= 0.00505  |g|= 1.84  |ddm|= 0.638
HOMO: -1.5820287561491153 LUMO: -1.5783747237697425
mo_energy:
[-5.669 -5.531 -4.201 -4.196 -4.192 -4.085 -4.056 -4.052 -1.751 -1.744
 -1.743 -1.713 -1.704 -1.641 -1.627 -1.624 -1.582 -1.578 -1.324 -1.277
 -0.956 -0.947]
e_fermi =  -1.5801990911954311
[2.    2.    2.    2.    2.    2.    2.    2.    2.    2.    2.    2.
 2.    2.    2.    2.    1.181 0.82 ]
entropy correction =  -0.01356025071697993
cycle= 15 E= -389.78680848254  delta_E= -0.0777  |g|= 1.69  |ddm|= 0.292
HOMO: -1.5704405839224398 LUMO: -1.569753931513057
mo_energy:
[-5.688 -5.49  -4.218 -4.217 -4.214 -4.046 -4.035 -3.991 -1.768 -1.762
 -1.761 -1.735 -1.725 -1.578 -1.576 -1.573 -1.57  -1.57  -1.334 -1.262
 -0.957 -0.949]
e_fermi =  -1.5660096329335098
[2.    2.    2.    2.    2.    2.    2.    2.    2.    2.    2.    2.
 2.    1.831 1.772 1.622 1.416 1.358]
entropy correction =  -0.023597302720546415
cycle= 16 E= -389.761049478247  delta_E= 0.0258  |g|= 1.79  |ddm|= 1.07
HOMO: -1.6296934866863868 LUMO: -1.6231300470328447
mo_energy:
[-5.666 -5.568 -4.219 -4.185 -4.172 -4.102 -4.101 -4.099 -1.742 -1.74
 -1.72  -1.714 -1.704 -1.661 -1.655 -1.654 -1.63  -1.623 -1.322 -1.281
 -0.957 -0.948]
e_fermi =  -1.6263139130822697
[2.    2.    2.    2.    2.    2.    2.    2.    2.    2.    2.    2.
 2.    1.998 1.993 1.991 1.326 0.692]
entropy correction =  -0.013429345456839261
cycle= 17 E= -389.811229220319  delta_E= -0.0502  |g|=  1.6  |ddm|= 1.58
HOMO: -1.6629204343283983 LUMO: -1.6547579376461818
mo_energy:
[-5.668 -5.589 -4.217 -4.187 -4.174 -4.135 -4.134 -4.097 -1.741 -1.739
 -1.72  -1.714 -1.703 -1.667 -1.666 -1.665 -1.663 -1.655 -1.32  -1.285
 -0.958 -0.949]
e_fermi =  -1.6551533057146577
[2.    2.    2.    2.    2.    2.    2.    2.    2.    2.    2.    2.
 2.    1.821 1.806 1.762 1.651 0.96 ]
entropy correction =  -0.02141223402941976
cycle= 18 E= -389.852439715548  delta_E= -0.0412  |g|= 1.57  |ddm|= 0.48
HOMO: -1.6670455200066796 LUMO: -1.6591355207180098
mo_energy:
[-5.667 -5.601 -4.213 -4.185 -4.176 -4.141 -4.139 -4.125 -1.74  -1.738
 -1.718 -1.709 -1.699 -1.687 -1.684 -1.682 -1.667 -1.659 -1.318 -1.289
 -0.958 -0.948]
e_fermi =  -1.6625725192989895
[2.    2.    2.    2.    2.    2.    2.    2.    2.    2.    2.    2.
 1.999 1.985 1.971 1.957 1.42  0.669]
entropy correction =  -0.0147080708262051
cycle= 19 E= -389.839694757849  delta_E= 0.0127  |g|= 1.54  |ddm|= 0.427
HOMO: -1.6586995469068406 LUMO: -1.6526006101987598
mo_energy:
[-5.674 -5.6   -4.219 -4.196 -4.181 -4.141 -4.133 -4.127 -1.742 -1.741
 -1.726 -1.719 -1.71  -1.692 -1.688 -1.68  -1.659 -1.653 -1.32  -1.289
 -0.959 -0.949]
e_fermi =  -1.6555395265108066
[2.    2.    2.    2.    2.    2.    2.    2.    2.    2.    2.    2.
 2.    1.999 1.997 1.984 1.306 0.714]
entropy correction =  -0.01360655905238366
cycle= 20 E= -389.820618526249  delta_E= 0.0191  |g|= 1.57  |ddm|= 0.141
HOMO: -1.6590381399840437 LUMO: -1.6530254703863274
mo_energy:
[-5.673 -5.601 -4.218 -4.195 -4.18  -4.143 -4.135 -4.127 -1.741 -1.74
 -1.725 -1.719 -1.709 -1.693 -1.69  -1.68  -1.659 -1.653 -1.319 -1.29
 -0.959 -0.949]
e_fermi =  -1.655929942811058
[2.    2.    2.    2.    2.    2.    2.    2.    2.    2.    2.    2.
 2.    1.999 1.998 1.985 1.301 0.717]
entropy correction =  -0.013584050732572158
cycle= 21 E= -389.82128679869  delta_E= -0.000668  |g|= 1.57  |ddm|= 0.0194
HOMO: -1.6856694192567656 LUMO: -1.678479593663678
mo_energy:
[-5.662 -5.619 -4.192 -4.186 -4.172 -4.162 -4.155 -4.147 -1.732 -1.726
 -1.719 -1.708 -1.706 -1.699 -1.692 -1.687 -1.686 -1.678 -1.316 -1.295
 -0.959 -0.948]
e_fermi =  -1.679140509854893
[2.    2.    2.    2.    2.    2.    2.    2.    2.    2.    1.999 1.993
 1.992 1.964 1.866 1.678 1.574 0.934]
entropy correction =  -0.020395725415870362
cycle= 22 E= -390.54157945942  delta_E= -0.72  |g|= 0.62  |ddm|=  1.3
HOMO: -1.6775302970080253 LUMO: -1.6699265357851607
mo_energy:
[-5.648 -5.601 -4.187 -4.169 -4.157 -4.149 -4.147 -4.115 -1.717 -1.714
 -1.705 -1.691 -1.684 -1.684 -1.683 -1.68  -1.678 -1.67  -1.314 -1.291
 -0.958 -0.947]
e_fermi =  -1.669873469837525
[2.    2.    2.    2.    2.    2.    2.    2.    2.    2.    1.998 1.97
 1.89  1.878 1.862 1.752 1.644 1.005]
entropy correction =  -0.0231573778148517
cycle= 23 E= -390.114715547936  delta_E= 0.427  |g|= 1.27  |ddm|= 0.424
HOMO: -1.6633218922918422 LUMO: -1.66087272735531
mo_energy:
[-5.65  -5.592 -4.194 -4.175 -4.153 -4.151 -4.135 -4.097 -1.717 -1.717
 -1.709 -1.702 -1.695 -1.674 -1.673 -1.664 -1.663 -1.661 -1.314 -1.289
 -0.958 -0.947]
e_fermi =  -1.6585280817163282
[2.    2.    2.    2.    2.    2.    2.    2.    2.    2.    2.    2.
 1.999 1.914 1.889 1.522 1.446 1.23 ]
entropy correction =  -0.022053129802815343
cycle= 24 E= -389.865983527495  delta_E= 0.249  |g|= 1.53  |ddm|= 0.507
HOMO: -1.6686078371273154 LUMO: -1.6636109587255563
mo_energy:
[-5.638 -5.594 -4.2   -4.158 -4.148 -4.138 -4.121 -4.108 -1.704 -1.701
 -1.692 -1.687 -1.687 -1.678 -1.675 -1.675 -1.669 -1.664 -1.312 -1.29
 -0.958 -0.946]
e_fermi =  -1.6634434648959293
[2.    2.    2.    2.    2.    2.    2.    2.    1.999 1.999 1.994 1.983
 1.981 1.889 1.835 1.828 1.475 1.017]
entropy correction =  -0.021923037468464735
cycle= 25 E= -390.25721412773  delta_E= -0.391  |g|= 1.09  |ddm|= 1.33
HOMO: -1.6451496480294172 LUMO: -1.6429038400759854
mo_energy:
[-5.608 -5.568 -4.152 -4.15  -4.143 -4.118 -4.081 -4.068 -1.681 -1.672
 -1.67  -1.665 -1.662 -1.659 -1.653 -1.65  -1.645 -1.643 -1.306 -1.285
 -0.954 -0.945]
e_fermi =  -1.641159243624546
[2.    2.    2.    2.    2.    2.    2.    2.    1.999 1.996 1.994 1.984
 1.967 1.942 1.837 1.728 1.379 1.173]
entropy correction =  -0.02275432249108825
cycle= 26 E= -390.465795946464  delta_E= -0.209  |g|= 0.73  |ddm|= 1.19
HOMO: -1.666237511939369 LUMO: -1.6620599794755273
mo_energy:
[-5.627 -5.587 -4.176 -4.146 -4.142 -4.133 -4.119 -4.106 -1.69  -1.689
 -1.685 -1.683 -1.676 -1.672 -1.669 -1.669 -1.666 -1.662 -1.311 -1.29
 -0.957 -0.946]
e_fermi =  -1.6595933254503985
[2.    2.    2.    2.    2.    2.    2.    2.    1.995 1.995 1.987 1.983
 1.93  1.839 1.728 1.719 1.581 1.242]
entropy correction =  -0.02533307579796643
cycle= 27 E= -390.645706948462  delta_E= -0.18  |g|= 0.291  |ddm|= 1.18
HOMO: -1.6728719192420494 LUMO: -1.6696328191299432
mo_energy:
[-5.63  -5.589 -4.173 -4.157 -4.147 -4.14  -4.117 -4.102 -1.684 -1.682
 -1.681 -1.681 -1.679 -1.677 -1.677 -1.676 -1.673 -1.67  -1.31  -1.29
 -0.957 -0.947]
e_fermi =  -1.6655646880406438
[2.    2.    2.    2.    2.    2.    2.    2.    1.95  1.931 1.916 1.906
 1.87  1.823 1.806 1.789 1.624 1.386]
entropy correction =  -0.029265799942577546
cycle= 28 E= -390.681678595208  delta_E= -0.036  |g|= 0.0622  |ddm|= 0.56
HOMO: -1.6699611536802434 LUMO: -1.6666148987962948
mo_energy:
[-5.627 -5.587 -4.168 -4.155 -4.149 -4.133 -4.116 -4.102 -1.682 -1.681
 -1.681 -1.679 -1.679 -1.675 -1.674 -1.672 -1.67  -1.667 -1.31  -1.289
 -0.956 -0.946]
e_fermi =  -1.6629221679253343
[2.    2.    2.    2.    2.    2.    2.    2.    1.957 1.952 1.948 1.918
 1.915 1.832 1.809 1.708 1.607 1.353]
entropy correction =  -0.02827489315124522
cycle= 29 E= -390.657891958655  delta_E= 0.0238  |g|= 0.259  |ddm|= 0.497
HOMO: -1.6710097888911326 LUMO: -1.6670521564827063
mo_energy:
[-5.625 -5.585 -4.169 -4.152 -4.144 -4.138 -4.112 -4.098 -1.678 -1.677
 -1.676 -1.676 -1.676 -1.675 -1.675 -1.674 -1.671 -1.667 -1.31  -1.289
 -0.956 -0.946]
e_fermi =  -1.6627347058475213
[2.    2.    2.    2.    2.    2.    2.    2.    1.912 1.883 1.874 1.874
 1.869 1.845 1.833 1.825 1.679 1.407]
entropy correction =  -0.030215931668365545
cycle= 30 E= -390.670413006787  delta_E= -0.0125  |g|= 0.211  |ddm|= 0.301
HOMO: -1.6694256292633898 LUMO: -1.6663993304990445
mo_energy:
[-5.625 -5.584 -4.168 -4.15  -4.144 -4.136 -4.112 -4.098 -1.676 -1.676
 -1.676 -1.676 -1.675 -1.675 -1.675 -1.675 -1.669 -1.666 -1.309 -1.289
 -0.956 -0.946]
e_fermi =  -1.662088464623745
[2.    2.    2.    2.    2.    2.    2.    2.    1.892 1.889 1.881 1.872
 1.866 1.86  1.858 1.85  1.625 1.406]
entropy correction =  -0.029999871303573115
cycle= 31 E= -390.686131362696  delta_E= -0.0157  |g|= 0.0225  |ddm|= 0.155
HOMO: -1.6709796215419264 LUMO: -1.6678931489497886
mo_energy:
[-5.626 -5.586 -4.168 -4.153 -4.147 -4.137 -4.113 -4.099 -1.678 -1.677
 -1.677 -1.677 -1.677 -1.676 -1.676 -1.675 -1.671 -1.668 -1.31  -1.289
 -0.956 -0.946]
e_fermi =  -1.663354426373553
[2.    2.    2.    2.    2.    2.    2.    2.    1.907 1.885 1.881 1.873
 1.869 1.851 1.849 1.816 1.643 1.425]
entropy correction =  -0.030193271791379976
cycle= 32 E= -390.685226472849  delta_E= 0.000905  |g|= 0.0442  |ddm|= 0.138
HOMO: -1.6708560215000234 LUMO: -1.6676729219971917
mo_energy:
[-5.626 -5.586 -4.169 -4.152 -4.145 -4.137 -4.113 -4.099 -1.677 -1.677
 -1.677 -1.677 -1.676 -1.676 -1.676 -1.676 -1.671 -1.668 -1.31  -1.289
 -0.956 -0.946]
e_fermi =  -1.6632357308376653
[2.    2.    2.    2.    2.    2.    2.    2.    1.887 1.875 1.873 1.871
 1.868 1.867 1.857 1.843 1.642 1.417]
entropy correction =  -0.03020176646954635
cycle= 33 E= -390.68565510806  delta_E= -0.000429  |g|= 0.0465  |ddm|= 0.0981
HOMO: -1.6704959891361055 LUMO: -1.66740894600691
mo_energy:
[-5.626 -5.585 -4.169 -4.152 -4.145 -4.137 -4.113 -4.099 -1.677 -1.677
 -1.677 -1.676 -1.676 -1.676 -1.676 -1.676 -1.67  -1.667 -1.31  -1.289
 -0.956 -0.946]
e_fermi =  -1.6630266630744017
[2.    2.    2.    2.    2.    2.    2.    2.    1.88  1.877 1.874 1.872
 1.871 1.87  1.861 1.849 1.633 1.412]
entropy correction =  -0.030120010743086158
cycle= 34 E= -390.686368030128  delta_E= -0.000713  |g|= 0.0159  |ddm|= 0.0329
HOMO: -1.6704726194032409 LUMO: -1.6673871068413835
mo_energy:
[-5.626 -5.585 -4.169 -4.152 -4.145 -4.137 -4.113 -4.099 -1.677 -1.677
 -1.676 -1.676 -1.676 -1.676 -1.676 -1.675 -1.67  -1.667 -1.31  -1.289
 -0.956 -0.946]
e_fermi =  -1.6629952874950353
[2.    2.    2.    2.    2.    2.    2.    2.    1.88  1.876 1.874 1.872
 1.871 1.87  1.861 1.848 1.634 1.413]
entropy correction =  -0.03012976475952497
cycle= 35 E= -390.686443764923  delta_E= -7.57e-05  |g|= 0.00608  |ddm|= 0.00407
HOMO: -1.6705201887337666 LUMO: -1.6674293998471181
mo_energy:
[-5.626 -5.585 -4.169 -4.152 -4.145 -4.137 -4.113 -4.099 -1.677 -1.677
 -1.677 -1.676 -1.676 -1.676 -1.676 -1.675 -1.671 -1.667 -1.309 -1.289
 -0.956 -0.946]
e_fermi =  -1.663017303019482
[2.    2.    2.    2.    2.    2.    2.    2.    1.88  1.876 1.875 1.872
 1.87  1.869 1.86  1.847 1.635 1.415]
entropy correction =  -0.030152234773315092
cycle= 36 E= -390.686453724442  delta_E= -9.96e-06  |g|= 0.00292  |ddm|= 0.00679
HOMO: -1.6704760084529515 LUMO: -1.6673894557372146
mo_energy:
[-5.626 -5.585 -4.168 -4.152 -4.145 -4.137 -4.113 -4.099 -1.677 -1.677
 -1.677 -1.676 -1.676 -1.676 -1.676 -1.675 -1.67  -1.667 -1.309 -1.289
 -0.956 -0.946]
e_fermi =  -1.6630004682180783
[2.    2.    2.    2.    2.    2.    2.    2.    1.88  1.877 1.875 1.872
 1.871 1.87  1.861 1.848 1.634 1.413]
entropy correction =  -0.030126916414241648
cycle= 37 E= -390.686454848034  delta_E= -1.12e-06  |g|= 0.00264  |ddm|= 0.00416
HOMO: -1.6704992974794144 LUMO: -1.6674112249250215
mo_energy:
[-5.626 -5.585 -4.168 -4.152 -4.145 -4.137 -4.113 -4.099 -1.677 -1.677
 -1.677 -1.676 -1.676 -1.676 -1.676 -1.675 -1.67  -1.667 -1.309 -1.289
 -0.956 -0.946]
e_fermi =  -1.663013329378699
[2.    2.    2.    2.    2.    2.    2.    2.    1.88  1.876 1.875 1.872
 1.871 1.87  1.86  1.848 1.634 1.413]
entropy correction =  -0.03013668868589707
cycle= 38 E= -390.686457319207  delta_E= -2.47e-06  |g|= 0.000496  |ddm|= 0.00187
HOMO: -1.6705018002942698 LUMO: -1.667413610676158
mo_energy:
[-5.626 -5.585 -4.168 -4.152 -4.145 -4.137 -4.113 -4.099 -1.677 -1.677
 -1.677 -1.676 -1.676 -1.676 -1.676 -1.675 -1.671 -1.667 -1.309 -1.289
 -0.956 -0.946]
e_fermi =  -1.663013807285715
[2.    2.    2.    2.    2.    2.    2.    2.    1.88  1.876 1.875 1.872
 1.871 1.87  1.86  1.848 1.634 1.414]
entropy correction =  -0.030138721754632256
cycle= 39 E= -390.686457397687  delta_E= -7.85e-08  |g|= 0.000232  |ddm|= 0.000517
HOMO: -1.6704972075045776 LUMO: -1.6674093051933776
mo_energy:
[-5.626 -5.585 -4.168 -4.152 -4.145 -4.137 -4.113 -4.099 -1.677 -1.677
 -1.677 -1.676 -1.676 -1.676 -1.676 -1.675 -1.67  -1.667 -1.309 -1.289
 -0.956 -0.946]
e_fermi =  -1.6630107003002736
[2.    2.    2.    2.    2.    2.    2.    2.    1.88  1.876 1.875 1.872
 1.871 1.87  1.86  1.848 1.634 1.414]
entropy correction =  -0.030137399850382805
cycle= 40 E= -390.686457415781  delta_E= -1.81e-08  |g|= 6.25e-05  |ddm|= 0.000217
HOMO: -1.6704991626846635 LUMO: -1.66741113505033
mo_energy:
[-5.626 -5.585 -4.168 -4.152 -4.145 -4.137 -4.113 -4.099 -1.677 -1.677
 -1.677 -1.676 -1.676 -1.676 -1.676 -1.675 -1.67  -1.667 -1.309 -1.289
 -0.956 -0.946]
e_fermi =  -1.6630123007859148
[2.    2.    2.    2.    2.    2.    2.    2.    1.88  1.876 1.875 1.872
 1.871 1.87  1.86  1.848 1.634 1.414]
entropy correction =  -0.03013767930285768
cycle= 41 E= -390.686457417582  delta_E= -1.8e-09  |g|= 1.31e-05  |ddm|= 8.86e-05
HOMO: -1.6704995326360008 LUMO: -1.667411480592629
mo_energy:
[-5.626 -5.585 -4.168 -4.152 -4.145 -4.137 -4.113 -4.099 -1.677 -1.677
 -1.677 -1.676 -1.676 -1.676 -1.676 -1.675 -1.67  -1.667 -1.309 -1.289
 -0.956 -0.946]
e_fermi =  -1.663012552598179
[2.    2.    2.    2.    2.    2.    2.    2.    1.88  1.876 1.875 1.872
 1.871 1.87  1.86  1.848 1.634 1.414]
entropy correction =  -0.030137784107016986
cycle= 42 E= -390.686457417587  delta_E= -5e-12  |g|= 1.02e-05  |ddm|= 3.81e-05
HOMO: -1.670499235679042 LUMO: -1.6674112827405092
mo_energy:
[-5.626 -5.585 -4.168 -4.152 -4.145 -4.137 -4.113 -4.099 -1.677 -1.677
 -1.677 -1.676 -1.676 -1.676 -1.676 -1.675 -1.67  -1.667 -1.309 -1.289
 -0.956 -0.946]
e_fermi =  -1.6630123349655113
[2.    2.    2.    2.    2.    2.    2.    2.    1.88  1.876 1.874 1.872
 1.871 1.87  1.86  1.848 1.634 1.414]
entropy correction =  -0.03013779772853604
Extra cycle  E= -390.686456852996  delta_E= 5.65e-07  |g|= 0.00127  |ddm|= 0.000548
converged SCF energy = -390.686456852996


******** <class 'pydmfet.dfet_ao.scf.EmbedSCF'> flags ********
method = EmbedSCF-RKS-RHF
initial guess = minao
damping factor = 0
level shift factor = 0
DIIS = <class 'pyscf.scf.diis.CDIIS'>
DIIS start cycle = 1
DIIS space = 8
SCF tol = 1e-09
SCF gradient tol = None
max. SCF cycles = 200
direct_scf = False
chkfile to save SCF result = /tmp/tmp8ajz0qa4
max_memory 16000 MB (current use 2026 MB)
XC functionals = pbe,pbe
small_rho_cutoff = 1e-07
radial grids: 
    Treutler-Ahlrichs (JCP 102, 346 (M4)) radial grids
    
becke partition: Becke, JCP, 88, 2547 (1988)
pruning grids: <function nwchem_prune at 0x2b8ec72e9400>
grids dens level: 3
symmetrized grids: False
atomic radii adjust function: <function treutler_atomic_radii_adjust at 0x2b8ec72e9378>
Set gradient conv threshold to 3.16228e-05
tot grids = 139880
init E= -78.4449591513359
HOMO: 0.24115700244466484 LUMO: 0.2970532316323777
mo_energy:
[-0.32  -0.315 -0.312 -0.306 -0.296 -0.277 -0.073 -0.072 -0.047 -0.047
 -0.025 -0.024 -0.013 -0.007  0.003  0.026  0.028  0.048  0.053  0.054
  0.06   0.063  0.149  0.241  0.297  0.3    0.324  0.337  0.377]
e_fermi =  0.2679973300041834
[2.    2.    2.    2.    2.    2.    2.    2.    2.    2.    2.    2.
 2.    2.    2.    2.    2.    2.    2.    2.    2.    2.    2.    1.991
 0.006 0.003]
entropy correction =  -0.0006225793775634167
cycle= 1 E= -86.0158854102987  delta_E= -7.57  |g|= 2.66  |ddm|=  9.2
HOMO: 0.8710935276099944 LUMO: 0.9890232079285363
mo_energy:
[-0.131 -0.126 -0.113 -0.108  0.279  0.302  0.352  0.355  0.359  0.366
  0.368  0.369  0.38   0.381  0.461  0.468  0.481  0.553  0.753  0.771
  0.796  0.828  0.864  0.871  0.989  1.007  1.011  1.016  1.03 ]
e_fermi =  0.9304711043517035
[2. 2. 2. 2. 2. 2. 2. 2. 2. 2. 2. 2. 2. 2. 2. 2. 2. 2. 2. 2. 2. 2. 2. 2.]
entropy correction =  -2.2407615837085556e-06
cycle= 2 E= -86.8453511919016  delta_E= -0.829  |g|= 2.04  |ddm|= 4.92
HOMO: 1.0525811439165509 LUMO: 1.0526310906069816
mo_energy:
[0.234 0.236 0.245 0.255 0.43  0.453 0.651 0.657 0.657 0.667 0.67  0.678
 0.686 0.686 0.719 0.733 0.736 0.749 0.84  0.867 0.878 0.911 0.921 1.053
 1.053 1.064 1.064 1.068 1.075]
e_fermi =  1.0508020363797275
[2.000e+00 2.000e+00 2.000e+00 2.000e+00 2.000e+00 2.000e+00 2.000e+00
 2.000e+00 2.000e+00 2.000e+00 2.000e+00 2.000e+00 2.000e+00 2.000e+00
 2.000e+00 2.000e+00 2.000e+00 2.000e+00 2.000e+00 2.000e+00 2.000e+00
 2.000e+00 2.000e+00 8.239e-01 8.191e-01 1.429e-01 1.279e-01 5.765e-02
 1.568e-02 1.154e-02 1.293e-03]
entropy correction =  -0.020666688946365055
cycle= 3 E= -88.1575906300099  delta_E= -1.31  |g|= 0.348  |ddm|= 2.83
HOMO: 0.965135260018827 LUMO: 0.9897225859300212
mo_energy:
[0.182 0.185 0.188 0.204 0.315 0.34  0.595 0.604 0.605 0.614 0.617 0.622
 0.633 0.634 0.641 0.647 0.651 0.656 0.726 0.749 0.755 0.774 0.8   0.965
 0.99  0.997 0.997 1.004 1.006]
e_fermi =  0.9762255954677662
[2.    2.    2.    2.    2.    2.    2.    2.    2.    2.    2.    2.
 2.    2.    2.    2.    2.    2.    2.    2.    2.    2.    2.    1.804
 0.126 0.029 0.028 0.008 0.005]
entropy correction =  -0.007494457397687081
cycle= 4 E= -88.1995496914999  delta_E= -0.042  |g|= 0.201  |ddm|= 1.49
HOMO: 0.9981779174425748 LUMO: 1.016534074041073
mo_energy:
[0.198 0.201 0.205 0.219 0.364 0.388 0.613 0.621 0.622 0.63  0.634 0.64
 0.649 0.65  0.668 0.681 0.681 0.687 0.769 0.795 0.802 0.823 0.845 0.998
 1.017 1.017 1.019 1.022 1.022]
e_fermi =  1.0039828596281908
[2.    2.    2.    2.    2.    2.    2.    2.    2.    2.    2.    2.
 2.    2.    2.    2.    2.    2.    2.    2.    2.    2.    2.    1.523
 0.15  0.137 0.091 0.05  0.049]
entropy correction =  -0.014830960819707162
cycle= 5 E= -88.2142872995563  delta_E= -0.0147  |g|= 0.0526  |ddm|= 0.293
HOMO: 1.0079218772612633 LUMO: 1.022352072811263
mo_energy:
[0.208 0.21  0.215 0.229 0.368 0.392 0.622 0.63  0.631 0.64  0.643 0.649
 0.659 0.66  0.679 0.692 0.693 0.695 0.775 0.801 0.81  0.832 0.853 1.008
 1.022 1.024 1.026 1.026 1.03 ]
e_fermi =  1.0118525468913842
[2.    2.    2.    2.    2.    2.    2.    2.    2.    2.    2.    2.
 2.    2.    2.    2.    2.    2.    2.    2.    2.    2.    2.    1.374
 0.218 0.149 0.106 0.104 0.049]
entropy correction =  -0.01759073231069926
cycle= 6 E= -88.2154912585919  delta_E= -0.0012  |g|= 0.0144  |ddm|= 0.137
HOMO: 1.007318884215888 LUMO: 1.0225022863927362
mo_energy:
[0.206 0.208 0.213 0.227 0.369 0.393 0.622 0.629 0.629 0.638 0.641 0.648
 0.658 0.659 0.678 0.691 0.692 0.695 0.778 0.803 0.812 0.834 0.854 1.007
 1.023 1.025 1.026 1.026 1.03 ]
e_fermi =  1.0116097150371501
[2.    2.    2.    2.    2.    2.    2.    2.    2.    2.    2.    2.
 2.    2.    2.    2.    2.    2.    2.    2.    2.    2.    2.    1.405
 0.203 0.137 0.105 0.1   0.049]
entropy correction =  -0.017101367036528606
cycle= 7 E= -88.2155507042365  delta_E= -5.94e-05  |g|= 0.00474  |ddm|= 0.0293
HOMO: 1.0083848924485 LUMO: 1.0230049957335563
mo_energy:
[0.207 0.209 0.214 0.228 0.37  0.394 0.622 0.63  0.63  0.639 0.642 0.648
 0.659 0.659 0.679 0.692 0.693 0.697 0.778 0.804 0.813 0.835 0.855 1.008
 1.023 1.025 1.027 1.027 1.031]
e_fermi =  1.012407862149188
[2.    2.    2.    2.    2.    2.    2.    2.    2.    2.    2.    2.
 2.    2.    2.    2.    2.    2.    2.    2.    2.    2.    2.    1.382
 0.214 0.138 0.108 0.107 0.05 ]
entropy correction =  -0.017485900628273987
cycle= 8 E= -88.2155641630202  delta_E= -1.35e-05  |g|= 0.00145  |ddm|= 0.0185
HOMO: 1.0083472537887315 LUMO: 1.0229901362078566
mo_energy:
[0.207 0.209 0.214 0.228 0.37  0.394 0.622 0.63  0.63  0.639 0.642 0.648
 0.659 0.659 0.679 0.692 0.693 0.696 0.778 0.804 0.813 0.835 0.855 1.008
 1.023 1.025 1.027 1.027 1.031]
e_fermi =  1.0123831871668778
[2.    2.    2.    2.    2.    2.    2.    2.    2.    2.    2.    2.
 2.    2.    2.    2.    2.    2.    2.    2.    2.    2.    2.    1.383
 0.214 0.138 0.107 0.107 0.05 ]
entropy correction =  -0.017467052762212453
cycle= 9 E= -88.2155650150545  delta_E= -8.52e-07  |g|= 0.000689  |ddm|= 0.00352
HOMO: 1.0082561260507175 LUMO: 1.0229496794730288
mo_energy:
[0.206 0.209 0.214 0.228 0.37  0.394 0.622 0.629 0.63  0.639 0.642 0.648
 0.659 0.659 0.679 0.692 0.693 0.696 0.778 0.804 0.813 0.835 0.855 1.008
 1.023 1.025 1.027 1.027 1.031]
e_fermi =  1.012318544255498
[2.    2.    2.    2.    2.    2.    2.    2.    2.    2.    2.    2.
 2.    2.    2.    2.    2.    2.    2.    2.    2.    2.    2.    1.385
 0.213 0.138 0.107 0.106 0.05 ]
entropy correction =  -0.01742879857515898
cycle= 10 E= -88.2155652879832  delta_E= -2.73e-07  |g|= 0.000227  |ddm|= 0.00206
HOMO: 1.0082462234678289 LUMO: 1.0229446569001086
mo_energy:
[0.206 0.209 0.214 0.228 0.37  0.394 0.622 0.629 0.63  0.639 0.642 0.648
 0.659 0.659 0.679 0.692 0.693 0.696 0.778 0.804 0.813 0.835 0.855 1.008
 1.023 1.025 1.027 1.027 1.031]
e_fermi =  1.012311437011641
[2.    2.    2.    2.    2.    2.    2.    2.    2.    2.    2.    2.
 2.    2.    2.    2.    2.    2.    2.    2.    2.    2.    2.    1.386
 0.213 0.138 0.107 0.106 0.05 ]
entropy correction =  -0.017424730483025255
cycle= 11 E= -88.2155653154183  delta_E= -2.74e-08  |g|= 1.83e-05  |ddm|= 0.000547
HOMO: 1.0082457763588257 LUMO: 1.0229430592218876
mo_energy:
[0.206 0.209 0.214 0.228 0.37  0.394 0.622 0.629 0.63  0.639 0.642 0.648
 0.659 0.659 0.679 0.692 0.693 0.696 0.778 0.804 0.813 0.835 0.855 1.008
 1.023 1.025 1.027 1.027 1.031]
e_fermi =  1.0123107121833084
[2.    2.    2.    2.    2.    2.    2.    2.    2.    2.    2.    2.
 2.    2.    2.    2.    2.    2.    2.    2.    2.    2.    2.    1.385
 0.213 0.138 0.107 0.106 0.05 ]
entropy correction =  -0.017425070406874833
cycle= 12 E= -88.2155653155083  delta_E= -9e-11  |g|= 1.08e-05  |ddm|= 5.14e-05
HOMO: 1.0082426292893174 LUMO: 1.0229411370700219
mo_energy:
[0.206 0.209 0.214 0.228 0.37  0.394 0.622 0.629 0.63  0.639 0.642 0.648
 0.659 0.659 0.679 0.692 0.693 0.696 0.778 0.804 0.813 0.835 0.855 1.008
 1.023 1.025 1.027 1.027 1.031]
e_fermi =  1.0123083006040376
[2.    2.    2.    2.    2.    2.    2.    2.    2.    2.    2.    2.
 2.    2.    2.    2.    2.    2.    2.    2.    2.    2.    2.    1.386
 0.213 0.138 0.107 0.106 0.05 ]
entropy correction =  -0.017423976637222924
Extra cycle  E= -88.2155653153228  delta_E= 1.85e-10  |g|= 2.27e-05  |ddm|= 8.23e-05
converged SCF energy = -88.2155653153228
|umat| =  2.499536041026312
rks_ao.ne_frozen =  0
Set gradient conv threshold to 3.16228e-05
tot grids = 120648
init E= -388.445109439261
HOMO:  0.14716716988840886 LUMO:  0.1824746018587008
Fermi energy:       0.1638360994
[2.0000e+00 2.0000e+00 2.0000e+00 2.0000e+00 2.0000e+00 2.0000e+00
 2.0000e+00 2.0000e+00 2.0000e+00 2.0000e+00 2.0000e+00 2.0000e+00
 2.0000e+00 2.0000e+00 2.0000e+00 2.0000e+00 1.9311e+00 4.6967e-02
 1.9099e-02 2.1736e-03 6.2109e-04]
entropy correction =  -0.0032636470900126464
cycle= 1 E= -328.761430922518  delta_E= 59.7  |g|= 10.7  |ddm|= 8.02
HOMO:  -8.397599087631152 LUMO:  -8.325916848135247
Fermi energy:      -8.3615579657
[2.0000e+00 2.0000e+00 2.0000e+00 2.0000e+00 2.0000e+00 2.0000e+00
 2.0000e+00 2.0000e+00 2.0000e+00 2.0000e+00 2.0000e+00 2.0000e+00
 2.0000e+00 2.0000e+00 2.0000e+00 1.9999e+00 1.9985e+00 1.6030e-03]
entropy correction =  -0.0001334323333909798
cycle= 2 E= -385.963596524252  delta_E= -57.2  |g|= 4.44  |ddm|= 8.38
HOMO:  -2.2082431705282524 LUMO:  -2.204989653427378
Fermi energy:      -2.2023560008
[2.     2.     2.     2.     2.     2.     2.     2.     1.9995 1.9986
 1.9983 1.9479 1.9288 1.8947 1.8635 1.5822 1.529  1.2574]
entropy correction =  -0.024628128382887086
cycle= 3 E= -390.42388382493  delta_E= -4.46  |g|= 1.19  |ddm|= 3.42
HOMO:  -1.450213028447627 LUMO:  -1.4483741540343005
Fermi energy:      -1.4492862559
[2.     2.     2.     2.     2.     2.     2.     2.     2.     2.
 2.     2.     2.     2.     1.9994 1.9992 1.0924 0.909 ]
entropy correction =  -0.013844363440894476
cycle= 4 E= -389.360512634457  delta_E= 1.06  |g|= 2.43  |ddm|= 1.62
HOMO:  -1.6458832514117263 LUMO:  -1.6389190900188633
Fermi energy:      -1.6420795696
[2.     2.     2.     2.     2.     2.     2.     2.     2.     2.
 2.     1.9999 1.9999 1.9999 1.99   1.9533 1.363  0.6941]
entropy correction =  -0.014157394068262448
cycle= 5 E= -389.931514868285  delta_E= -0.571  |g|= 1.46  |ddm|= 1.86
HOMO:  -1.5400171446519195 LUMO:  -1.5320443140455964
Fermi energy:      -1.5339520442
[2.     2.     2.     2.     2.     2.     2.     2.     2.     2.
 2.     2.     2.     1.9979 1.9942 1.6547 1.5417 0.8115]
entropy correction =  -0.017016533184412274
cycle= 6 E= -389.648224415169  delta_E= 0.283  |g|=  1.9  |ddm|= 1.76
HOMO:  -1.5966784205532123 LUMO:  -1.5911404483265328
Fermi energy:      -1.5926955816
[2.     2.     2.     2.     2.     2.     2.     2.     2.     2.
 2.     2.     2.     1.944  1.9226 1.9093 1.3785 0.8457]
entropy correction =  -0.017771842147969518
cycle= 7 E= -389.762081837368  delta_E= -0.114  |g|= 1.75  |ddm|= 1.55
HOMO:  -1.6649643484596097 LUMO:  -1.658707671719844
Fermi energy:      -1.6588515772
[2.     2.     2.     2.     2.     2.     2.     2.     2.     2.
 1.9999 1.9999 1.9926 1.9762 1.8645 1.6363 1.545  0.9856]
entropy correction =  -0.020413227968096574
cycle= 8 E= -389.822469833203  delta_E= -0.0604  |g|= 1.56  |ddm|= 1.39
HOMO:  -1.6540361258865748 LUMO:  -1.6338832035897684
Fermi energy:      -1.6425710031
[2.     2.     2.     2.     2.     2.     2.     2.     2.     2.
 2.     2.     2.     2.     2.     1.8842 1.8166 0.2992]
entropy correction =  -0.009498118980406502
cycle= 9 E= -389.751639770334  delta_E= 0.0708  |g|= 1.59  |ddm|= 1.82
HOMO:  -1.6823674991841 LUMO:  -1.6695332130869225
Fermi energy:      -1.6739649646
[2.     2.     2.     2.     2.     2.     2.     2.     2.     2.
 2.     2.     1.9999 1.9988 1.9899 1.7417 1.6859 0.5837]
entropy correction =  -0.014606552186276456
cycle= 10 E= -389.766662884584  delta_E= -0.015  |g|= 1.58  |ddm|= 0.299
HOMO:  -1.7072485652859248 LUMO:  -1.6974212518431238
Fermi energy:      -1.6981482574
[2.     2.     2.     2.     2.     2.     2.     2.     2.     1.9999
 1.9999 1.9726 1.8763 1.8451 1.8311 1.8265 1.7211 0.9274]
entropy correction =  -0.022569996339331894
cycle= 11 E= -390.119204651313  delta_E= -0.353  |g|= 1.28  |ddm|= 1.46
HOMO:  -1.5288357338590257 LUMO:  -1.5226913814857235
Fermi energy:      -1.5241870501
[2.     2.     2.     2.     2.     2.     2.     2.     2.     2.
 2.     2.     2.     1.9946 1.9803 1.7395 1.434  0.8515]
entropy correction =  -0.01738693227239985
cycle= 12 E= -389.619328697923  delta_E=  0.5  |g|= 1.97  |ddm|= 1.57
HOMO:  -1.552590663324029 LUMO:  -1.5474884719672248
Fermi energy:      -1.5457346845
[2.     2.     2.     2.     2.     2.     2.     2.     2.     2.
 2.     2.     2.     1.7575 1.7403 1.7334 1.5951 1.1736]
entropy correction =  -0.023298208619086526
cycle= 13 E= -389.714184169625  delta_E= -0.0949  |g|= 1.89  |ddm|= 1.12
HOMO:  -1.5453507125621146 LUMO:  -1.5421142863741835
Fermi energy:      -1.5436998766
[2.     2.     2.     2.     2.     2.     2.     2.     2.     2.
 2.     2.     2.     1.9999 1.9997 1.994  1.1636 0.8428]
entropy correction =  -0.013826304837471506
cycle= 14 E= -389.709132425891  delta_E= 0.00505  |g|= 1.84  |ddm|= 0.638
HOMO:  -1.582028756147639 LUMO:  -1.5783747237718277
Fermi energy:      -1.5801990912
[2.     2.     2.     2.     2.     2.     2.     2.     2.     2.
 2.     2.     2.     2.     1.9998 1.9997 1.181  0.8196]
entropy correction =  -0.013560250717840922
cycle= 15 E= -389.786808482594  delta_E= -0.0777  |g|= 1.69  |ddm|= 0.292
HOMO:  -1.5704405843326008 LUMO:  -1.5697539319134741
Fermi energy:      -1.5660096334
[2.     2.     2.     2.     2.     2.     2.     2.     2.     2.
 2.     2.     2.     1.8315 1.7723 1.6222 1.4162 1.3579]
entropy correction =  -0.023597302676287443
cycle= 16 E= -389.761049478577  delta_E= 0.0258  |g|= 1.79  |ddm|= 1.07
HOMO:  -1.6296934859620884 LUMO:  -1.6231300463276397
Fermi energy:      -1.6263139124
[2.     2.     2.     2.     2.     2.     2.     2.     2.     2.
 2.     2.     2.     1.9981 1.9929 1.9914 1.3257 0.692 ]
entropy correction =  -0.0134293454637992
cycle= 17 E= -389.811229220049  delta_E= -0.0502  |g|=  1.6  |ddm|= 1.58
HOMO:  -1.662920434131962 LUMO:  -1.6547579374542365
Fermi energy:      -1.6551533055
[2.     2.     2.     2.     2.     2.     2.     2.     2.     2.
 2.     2.     1.9999 1.8207 1.8064 1.7617 1.6508 0.9605]
entropy correction =  -0.021412234095181223
cycle= 18 E= -389.85243971577  delta_E= -0.0412  |g|= 1.57  |ddm|= 0.48
HOMO:  -1.6670455201058756 LUMO:  -1.6591355208192726
Fermi energy:      -1.6625725194
[2.     2.     2.     2.     2.     2.     2.     2.     2.     2.
 2.     1.9998 1.9986 1.9854 1.9706 1.9567 1.4197 0.6692]
entropy correction =  -0.014708070820016945
cycle= 19 E= -389.839694758972  delta_E= 0.0127  |g|= 1.54  |ddm|= 0.427
HOMO:  -1.6586995462888148 LUMO:  -1.6526006095348384
Fermi energy:      -1.6555395259
[2.     2.     2.     2.     2.     2.     2.     2.     2.     2.
 2.     2.     2.     1.9986 1.9969 1.9843 1.3059 0.7143]
entropy correction =  -0.013606559039216577
cycle= 20 E= -389.820618525953  delta_E= 0.0191  |g|= 1.57  |ddm|= 0.141
HOMO:  -1.6590381401622212 LUMO:  -1.6530254705400695
Fermi energy:      -1.6559299430
[2.     2.     2.     2.     2.     2.     2.     2.     2.     2.
 2.     2.     2.     1.9989 1.9976 1.9849 1.3012 0.7175]
entropy correction =  -0.013584050704704694
cycle= 21 E= -389.821286798952  delta_E= -0.000668  |g|= 1.57  |ddm|= 0.0194
HOMO:  -1.685669413098319 LUMO:  -1.6784795941209363
Fermi energy:      -1.6791405080
[2.     2.     2.     2.     2.     2.     2.     2.     2.     1.9998
 1.9994 1.9934 1.9916 1.964  1.8662 1.6781 1.5736 0.934 ]
entropy correction =  -0.02039572703856968
cycle= 22 E= -390.541579756794  delta_E= -0.72  |g|= 0.62  |ddm|=  1.3
HOMO:  -1.6775302994700585 LUMO:  -1.6699265413940483
Fermi energy:      -1.6698734655
[2.     2.     2.     2.     2.     2.     2.     2.     1.9998 1.9997
 1.9983 1.9705 1.8897 1.8781 1.8624 1.7518 1.6444 1.0053]
entropy correction =  -0.023157393644562204
cycle= 23 E= -390.114716120763  delta_E= 0.427  |g|= 1.27  |ddm|= 0.424
HOMO:  -1.6633218932709206 LUMO:  -1.660872745546779
Fermi energy:      -1.6585280902
[2.     2.     2.     2.     2.     2.     2.     2.     2.     2.
 1.9999 1.9997 1.9987 1.9141 1.8894 1.5223 1.4457 1.2303]
entropy correction =  -0.022053133813441535
cycle= 24 E= -389.865983504159  delta_E= 0.249  |g|= 1.53  |ddm|= 0.507
HOMO:  -1.668607818288066 LUMO:  -1.6636109403027872
Fermi energy:      -1.6634434544
[2.     2.     2.     2.     2.     2.     2.     2.     1.9994 1.9988
 1.9937 1.9827 1.9813 1.8891 1.8349 1.8284 1.4749 1.0167]
entropy correction =  -0.021923021306722034
cycle= 25 E= -390.257212514137  delta_E= -0.391  |g|= 1.09  |ddm|= 1.33
HOMO:  -1.645149666480001 LUMO:  -1.6429038490053138
Fermi energy:      -1.6411592568
[2.     2.     2.     2.     2.     2.     2.     2.     1.9993 1.9962
 1.9942 1.9844 1.9667 1.9423 1.8373 1.7278 1.3791 1.1727]
entropy correction =  -0.022754319270505634
cycle= 26 E= -390.465796084985  delta_E= -0.209  |g|= 0.73  |ddm|= 1.19
HOMO:  -1.6662375196120118 LUMO:  -1.662059980595183
Fermi energy:      -1.6595933253
[2.     2.     2.     2.     2.     2.     2.     2.     1.9954 1.9949
 1.9869 1.9832 1.9304 1.8386 1.7284 1.7191 1.5813 1.2418]
entropy correction =  -0.02533307955278028
cycle= 27 E= -390.645706952728  delta_E= -0.18  |g|= 0.291  |ddm|= 1.18
HOMO:  -1.6728719157583907 LUMO:  -1.6696328260796582
Fermi energy:      -1.6655646876
[2.     2.     2.     2.     2.     2.     2.     2.     1.9504 1.9306
 1.9156 1.9062 1.8696 1.8234 1.8059 1.7889 1.6235 1.3858]
entropy correction =  -0.02926580643302217
cycle= 28 E= -390.681678566291  delta_E= -0.036  |g|= 0.0622  |ddm|= 0.56
HOMO:  -1.669961146669092 LUMO:  -1.6666148981286777
Fermi energy:      -1.6629221671
[2.     2.     2.     2.     2.     2.     2.     2.     1.957  1.9517
 1.9485 1.9179 1.9155 1.8324 1.8088 1.7081 1.6068 1.3534]
entropy correction =  -0.02827489444784384
cycle= 29 E= -390.657892146381  delta_E= 0.0238  |g|= 0.259  |ddm|= 0.497
HOMO:  -1.6710097801438357 LUMO:  -1.6670521522602315
Fermi energy:      -1.6627347029
[2.     2.     2.     2.     2.     2.     2.     2.     1.9116 1.883
 1.874  1.8736 1.869  1.8452 1.8329 1.8247 1.6791 1.4068]
entropy correction =  -0.0302159290766691
cycle= 30 E= -390.670412933803  delta_E= -0.0125  |g|= 0.211  |ddm|= 0.301
HOMO:  -1.6694256327553483 LUMO:  -1.6663993353270237
Fermi energy:      -1.6620884679
[2.     2.     2.     2.     2.     2.     2.     2.     1.8917 1.8889
 1.8814 1.8723 1.8659 1.8602 1.8577 1.8503 1.6253 1.4062]
entropy correction =  -0.029999872393377834
cycle= 31 E= -390.686131369601  delta_E= -0.0157  |g|= 0.0225  |ddm|= 0.155
HOMO:  -1.6709796171476206 LUMO:  -1.667893148801142
Fermi energy:      -1.6633544212
[2.     2.     2.     2.     2.     2.     2.     2.     1.9074 1.885
 1.881  1.8734 1.8693 1.8509 1.8493 1.8158 1.6426 1.4251]
entropy correction =  -0.030193274251492826
cycle= 32 E= -390.685226478543  delta_E= 0.000905  |g|= 0.0442  |ddm|= 0.138
HOMO:  -1.6708560166349689 LUMO:  -1.6676729179625367
Fermi energy:      -1.6632357296
[2.     2.     2.     2.     2.     2.     2.     2.     1.8873 1.8749
 1.8729 1.8707 1.868  1.867  1.8574 1.8427 1.6423 1.4167]
entropy correction =  -0.03020176351739082
cycle= 33 E= -390.685655105521  delta_E= -0.000429  |g|= 0.0465  |ddm|= 0.0981
HOMO:  -1.670495988842453 LUMO:  -1.6674089457684982
Fermi energy:      -1.6630266626
[2.     2.     2.     2.     2.     2.     2.     2.     1.8804 1.8766
 1.8743 1.8723 1.871  1.8703 1.8611 1.8485 1.6333 1.4122]
entropy correction =  -0.03012001095277604
cycle= 34 E= -390.686368033186  delta_E= -0.000713  |g|= 0.0159  |ddm|= 0.0329
HOMO:  -1.6704726184493546 LUMO:  -1.667387105928155
Fermi energy:      -1.6629952859
[2.     2.     2.     2.     2.     2.     2.     2.     1.8802 1.8764
 1.8741 1.8722 1.871  1.8703 1.8606 1.8484 1.6338 1.413 ]
entropy correction =  -0.030129765493217737
cycle= 35 E= -390.686443767444  delta_E= -7.57e-05  |g|= 0.00608  |ddm|= 0.00407
HOMO:  -1.670520188188341 LUMO:  -1.6674293993541516
Fermi energy:      -1.6630173027
[2.     2.     2.     2.     2.     2.     2.     2.     1.8802 1.876
 1.8749 1.8721 1.8705 1.8694 1.8597 1.8471 1.6353 1.4146]
entropy correction =  -0.0301522345648405
cycle= 36 E= -390.686453724336  delta_E= -9.96e-06  |g|= 0.00292  |ddm|= 0.00679
HOMO:  -1.670476008748815 LUMO:  -1.6673894560091054
Fermi energy:      -1.6630004684
[2.     2.     2.     2.     2.     2.     2.     2.     1.8801 1.8765
 1.8748 1.8723 1.8707 1.8699 1.8609 1.8483 1.6337 1.4127]
entropy correction =  -0.03012691649322566
cycle= 37 E= -390.686454848014  delta_E= -1.12e-06  |g|= 0.00264  |ddm|= 0.00416
HOMO:  -1.6704992975799215 LUMO:  -1.667411225019309
Fermi energy:      -1.6630133294
[2.     2.     2.     2.     2.     2.     2.     2.     1.8803 1.8764
 1.8746 1.8723 1.8708 1.8697 1.8605 1.8478 1.6343 1.4135]
entropy correction =  -0.030136688815142927
cycle= 38 E= -390.686457319207  delta_E= -2.47e-06  |g|= 0.000496  |ddm|= 0.00187
HOMO:  -1.6705018002990066 LUMO:  -1.6674136106807587
Fermi energy:      -1.6630138073
[2.     2.     2.     2.     2.     2.     2.     2.     1.8802 1.8763
 1.8746 1.8722 1.8707 1.8698 1.8604 1.8477 1.6344 1.4136]
entropy correction =  -0.03013872174498439
cycle= 39 E= -390.686457397688  delta_E= -7.85e-08  |g|= 0.000232  |ddm|= 0.000517
HOMO:  -1.6704972074268358 LUMO:  -1.6674093051207295
Fermi energy:      -1.6630107002
[2.     2.     2.     2.     2.     2.     2.     2.     1.8802 1.8763
 1.8746 1.8723 1.8707 1.8698 1.8604 1.8478 1.6343 1.4135]
entropy correction =  -0.030137399832452078
cycle= 40 E= -390.68645741578  delta_E= -1.81e-08  |g|= 6.25e-05  |ddm|= 0.000217
HOMO:  -1.6704991626659849 LUMO:  -1.6674111350328902
Fermi energy:      -1.6630123008
[2.     2.     2.     2.     2.     2.     2.     2.     1.8802 1.8763
 1.8746 1.8722 1.8707 1.8698 1.8604 1.8478 1.6344 1.4135]
entropy correction =  -0.030137679299502614
cycle= 41 E= -390.686457417583  delta_E= -1.8e-09  |g|= 1.31e-05  |ddm|= 8.86e-05
HOMO:  -1.6704995326577694 LUMO:  -1.6674114806127467
Fermi energy:      -1.6630125526
[2.     2.     2.     2.     2.     2.     2.     2.     1.8802 1.8763
 1.8746 1.8722 1.8707 1.8698 1.8604 1.8478 1.6344 1.4136]
entropy correction =  -0.030137784111352792
cycle= 42 E= -390.686457417587  delta_E= -4.55e-12  |g|= 1.02e-05  |ddm|= 3.81e-05
HOMO:  -1.67049923564 LUMO:  -1.667411282716842
Fermi energy:      -1.6630123350
[2.     2.     2.     2.     2.     2.     2.     2.     1.8802 1.8763
 1.8745 1.8723 1.8707 1.8699 1.8604 1.8478 1.6344 1.4136]
entropy correction =  -0.030137797718848922
Extra cycle  E= -390.686456852776  delta_E= 5.65e-07  |g|= 0.00127  |ddm|= 0.000548
entropy correction =  -0.030137797718848922
rks_ao.ne_frozen =  0
Set gradient conv threshold to 3.16228e-05
tot grids = 139880
init E= -78.4449591513359
HOMO:  0.24115700244466332 LUMO:  0.297053231632378
Fermi energy:       0.2679973300
[2.     2.     2.     2.     2.     2.     2.     2.     2.     2.
 2.     2.     2.     2.     2.     2.     2.     2.     2.     2.
 2.     2.     2.     1.9907 0.006  0.0033]
entropy correction =  -0.0006225793775633244
cycle= 1 E= -86.0158854102987  delta_E= -7.57  |g|= 2.66  |ddm|=  9.2
HOMO:  0.8710935276099977 LUMO:  0.9890232079285387
Fermi energy:       0.9304711044
[2. 2. 2. 2. 2. 2. 2. 2. 2. 2. 2. 2. 2. 2. 2. 2. 2. 2. 2. 2. 2. 2. 2. 2.]
entropy correction =  -2.2407615837087267e-06
cycle= 2 E= -86.845351191902  delta_E= -0.829  |g|= 2.04  |ddm|= 4.92
HOMO:  1.052581143916547 LUMO:  1.0526310906069796
Fermi energy:       1.0508020364
[2.0000e+00 2.0000e+00 2.0000e+00 2.0000e+00 2.0000e+00 2.0000e+00
 2.0000e+00 2.0000e+00 2.0000e+00 2.0000e+00 2.0000e+00 2.0000e+00
 2.0000e+00 2.0000e+00 2.0000e+00 2.0000e+00 2.0000e+00 2.0000e+00
 2.0000e+00 2.0000e+00 2.0000e+00 2.0000e+00 2.0000e+00 8.2394e-01
 8.1911e-01 1.4290e-01 1.2789e-01 5.7651e-02 1.5676e-02 1.1544e-02
 1.2931e-03]
entropy correction =  -0.020666688946364406
cycle= 3 E= -88.1575906300099  delta_E= -1.31  |g|= 0.348  |ddm|= 2.83
HOMO:  0.9651352600188312 LUMO:  0.9897225859300258
Fermi energy:       0.9762255955
[2.     2.     2.     2.     2.     2.     2.     2.     2.     2.
 2.     2.     2.     2.     2.     2.     2.     2.     2.     2.
 2.     2.     2.     1.8037 0.126  0.0292 0.0283 0.008  0.0047]
entropy correction =  -0.007494457397686533
cycle= 4 E= -88.1995496914995  delta_E= -0.042  |g|= 0.201  |ddm|= 1.49
HOMO:  0.9981779174425818 LUMO:  1.0165340740410798
Fermi energy:       1.0039828596
[2.0000e+00 2.0000e+00 2.0000e+00 2.0000e+00 2.0000e+00 2.0000e+00
 2.0000e+00 2.0000e+00 2.0000e+00 2.0000e+00 2.0000e+00 2.0000e+00
 2.0000e+00 2.0000e+00 2.0000e+00 2.0000e+00 2.0000e+00 2.0000e+00
 2.0000e+00 2.0000e+00 2.0000e+00 2.0000e+00 2.0000e+00 1.5230e+00
 1.5029e-01 1.3676e-01 9.1207e-02 4.9733e-02 4.8766e-02 1.7545e-04]
entropy correction =  -0.014830960819708389
cycle= 5 E= -88.2142872995566  delta_E= -0.0147  |g|= 0.0526  |ddm|= 0.293
HOMO:  1.0079218772612657 LUMO:  1.022352072811264
Fermi energy:       1.0118525469
[2.0000e+00 2.0000e+00 2.0000e+00 2.0000e+00 2.0000e+00 2.0000e+00
 2.0000e+00 2.0000e+00 2.0000e+00 2.0000e+00 2.0000e+00 2.0000e+00
 2.0000e+00 2.0000e+00 2.0000e+00 2.0000e+00 2.0000e+00 2.0000e+00
 2.0000e+00 2.0000e+00 2.0000e+00 2.0000e+00 2.0000e+00 1.3740e+00
 2.1821e-01 1.4937e-01 1.0555e-01 1.0363e-01 4.8781e-02 3.4031e-04
 1.1371e-04]
entropy correction =  -0.017590732310700005
cycle= 6 E= -88.215491258592  delta_E= -0.0012  |g|= 0.0144  |ddm|= 0.137
HOMO:  1.0073188842158896 LUMO:  1.0225022863927407
Fermi energy:       1.0116097150
[2.0000e+00 2.0000e+00 2.0000e+00 2.0000e+00 2.0000e+00 2.0000e+00
 2.0000e+00 2.0000e+00 2.0000e+00 2.0000e+00 2.0000e+00 2.0000e+00
 2.0000e+00 2.0000e+00 2.0000e+00 2.0000e+00 2.0000e+00 2.0000e+00
 2.0000e+00 2.0000e+00 2.0000e+00 2.0000e+00 2.0000e+00 1.4046e+00
 2.0339e-01 1.3690e-01 1.0520e-01 1.0040e-01 4.9060e-02 3.6741e-04
 1.2279e-04]
entropy correction =  -0.0171013670365284
cycle= 7 E= -88.2155507042365  delta_E= -5.94e-05  |g|= 0.00474  |ddm|= 0.0293
HOMO:  1.0083848924485013 LUMO:  1.023004995733559
Fermi energy:       1.0124078621
[2.0000e+00 2.0000e+00 2.0000e+00 2.0000e+00 2.0000e+00 2.0000e+00
 2.0000e+00 2.0000e+00 2.0000e+00 2.0000e+00 2.0000e+00 2.0000e+00
 2.0000e+00 2.0000e+00 2.0000e+00 2.0000e+00 2.0000e+00 2.0000e+00
 2.0000e+00 2.0000e+00 2.0000e+00 2.0000e+00 2.0000e+00 1.3819e+00
 2.1445e-01 1.3844e-01 1.0771e-01 1.0664e-01 5.0320e-02 3.9170e-04
 1.3408e-04]
entropy correction =  -0.017485900628274216
cycle= 8 E= -88.2155641630204  delta_E= -1.35e-05  |g|= 0.00145  |ddm|= 0.0185
HOMO:  1.0083472537887324 LUMO:  1.0229901362078573
Fermi energy:       1.0123831872
[2.0000e+00 2.0000e+00 2.0000e+00 2.0000e+00 2.0000e+00 2.0000e+00
 2.0000e+00 2.0000e+00 2.0000e+00 2.0000e+00 2.0000e+00 2.0000e+00
 2.0000e+00 2.0000e+00 2.0000e+00 2.0000e+00 2.0000e+00 2.0000e+00
 2.0000e+00 2.0000e+00 2.0000e+00 2.0000e+00 2.0000e+00 1.3830e+00
 2.1407e-01 1.3814e-01 1.0741e-01 1.0658e-01 5.0250e-02 3.9071e-04
 1.3382e-04]
entropy correction =  -0.017467052762213883
cycle= 9 E= -88.2155650150547  delta_E= -8.52e-07  |g|= 0.000689  |ddm|= 0.00352
HOMO:  1.0082561260507181 LUMO:  1.0229496794730324
Fermi energy:       1.0123185443
[2.0000e+00 2.0000e+00 2.0000e+00 2.0000e+00 2.0000e+00 2.0000e+00
 2.0000e+00 2.0000e+00 2.0000e+00 2.0000e+00 2.0000e+00 2.0000e+00
 2.0000e+00 2.0000e+00 2.0000e+00 2.0000e+00 2.0000e+00 2.0000e+00
 2.0000e+00 2.0000e+00 2.0000e+00 2.0000e+00 2.0000e+00 1.3853e+00
 2.1315e-01 1.3780e-01 1.0675e-01 1.0638e-01 5.0120e-02 3.8879e-04
 1.3290e-04]
entropy correction =  -0.017428798575157098
cycle= 10 E= -88.2155652879837  delta_E= -2.73e-07  |g|= 0.000227  |ddm|= 0.00206
HOMO:  1.008246223467832 LUMO:  1.0229446569001097
Fermi energy:       1.0123114370
[2.0000e+00 2.0000e+00 2.0000e+00 2.0000e+00 2.0000e+00 2.0000e+00
 2.0000e+00 2.0000e+00 2.0000e+00 2.0000e+00 2.0000e+00 2.0000e+00
 2.0000e+00 2.0000e+00 2.0000e+00 2.0000e+00 2.0000e+00 2.0000e+00
 2.0000e+00 2.0000e+00 2.0000e+00 2.0000e+00 2.0000e+00 1.3855e+00
 2.1307e-01 1.3775e-01 1.0667e-01 1.0636e-01 5.0110e-02 3.8860e-04
 1.3279e-04]
entropy correction =  -0.017424730483025556
cycle= 11 E= -88.2155653154184  delta_E= -2.74e-08  |g|= 1.83e-05  |ddm|= 0.000547
HOMO:  1.008245776358826 LUMO:  1.0229430592218862
Fermi energy:       1.0123107122
[2.0000e+00 2.0000e+00 2.0000e+00 2.0000e+00 2.0000e+00 2.0000e+00
 2.0000e+00 2.0000e+00 2.0000e+00 2.0000e+00 2.0000e+00 2.0000e+00
 2.0000e+00 2.0000e+00 2.0000e+00 2.0000e+00 2.0000e+00 2.0000e+00
 2.0000e+00 2.0000e+00 2.0000e+00 2.0000e+00 2.0000e+00 1.3855e+00
 2.1310e-01 1.3775e-01 1.0666e-01 1.0636e-01 5.0116e-02 3.8858e-04
 1.3278e-04]
entropy correction =  -0.017425070406874216
cycle= 12 E= -88.2155653155078  delta_E= -8.94e-11  |g|= 1.08e-05  |ddm|= 5.14e-05
HOMO:  1.0082426292893085 LUMO:  1.0229411370700157
Fermi energy:       1.0123083006
[2.0000e+00 2.0000e+00 2.0000e+00 2.0000e+00 2.0000e+00 2.0000e+00
 2.0000e+00 2.0000e+00 2.0000e+00 2.0000e+00 2.0000e+00 2.0000e+00
 2.0000e+00 2.0000e+00 2.0000e+00 2.0000e+00 2.0000e+00 2.0000e+00
 2.0000e+00 2.0000e+00 2.0000e+00 2.0000e+00 2.0000e+00 1.3856e+00
 2.1308e-01 1.3774e-01 1.0664e-01 1.0635e-01 5.0112e-02 3.8848e-04
 1.3274e-04]
entropy correction =  -0.01742397663721937
Extra cycle  E= -88.2155653153232  delta_E= 1.85e-10  |g|= 2.27e-05  |ddm|= 8.23e-05
degenerate subspace detected:
nsub = 1
subspace 1:
10, 11, 12, 13, 14, 

 Adding contributions from fluctuation of occupation numbers.
degenerate subspace detected:
nsub = 1
subspace 1:
27, 28, 

 Adding contributions from fluctuation of occupation numbers.
entropy correction =  -0.01742397663721937
2-norm (grad),       max(grad):
0.4105011495273917 ,  0.0699669144384022
time of hessian construction : 26.110  (cpu),  0.887  (wall) 
time of hessian construction : 27.550  (cpu),  0.690  (wall) 
f =  0.084255596881655
|umat| =  2.9162161933229918
rks_ao.ne_frozen =  0
Set gradient conv threshold to 3.16228e-05
tot grids = 120648
init E= -388.349060331318
HOMO:  0.0493422880241885 LUMO:  0.12126804693123207
Fermi energy:       0.0859462386
[2.0000e+00 2.0000e+00 2.0000e+00 2.0000e+00 2.0000e+00 2.0000e+00
 2.0000e+00 2.0000e+00 2.0000e+00 2.0000e+00 2.0000e+00 2.0000e+00
 2.0000e+00 2.0000e+00 2.0000e+00 1.9996e+00 1.9987e+00 1.7086e-03]
entropy correction =  -0.00014260835449389926
cycle= 1 E= -330.94022868345  delta_E= 57.4  |g|= 11.3  |ddm|= 10.9
HOMO:  -8.129700717510683 LUMO:  -7.9323278348911455
Fermi energy:      -8.0310142756
[2. 2. 2. 2. 2. 2. 2. 2. 2. 2. 2. 2. 2. 2. 2. 2. 2.]
entropy correction =  0.0
cycle= 2 E= -386.885497225636  delta_E= -55.9  |g|= 4.66  |ddm|= 11.1
HOMO:  -1.9418612573257188 LUMO:  -1.7684365411859613
Fermi energy:      -1.8551488991
[2. 2. 2. 2. 2. 2. 2. 2. 2. 2. 2. 2. 2. 2. 2. 2. 2.]
entropy correction =  -1.0783211275802116e-08
cycle= 3 E= -391.943151967303  delta_E= -5.06  |g|= 0.933  |ddm|= 3.38
HOMO:  -1.6009369074993463 LUMO:  -1.4315461172201256
Fermi energy:      -1.5164618332
[2. 2. 2. 2. 2. 2. 2. 2. 2. 2. 2. 2. 2. 2. 2. 2. 2.]
entropy correction =  -1.5799963349270986e-08
cycle= 4 E= -391.92042382795  delta_E= 0.0227  |g|= 0.88  |ddm|= 0.713
HOMO:  -1.5921489747803588 LUMO:  -1.4306963740094822
Fermi energy:      -1.5114324855
[2. 2. 2. 2. 2. 2. 2. 2. 2. 2. 2. 2. 2. 2. 2. 2. 2.]
entropy correction =  -3.337162925162549e-08
cycle= 5 E= -392.05347859607  delta_E= -0.133  |g|= 0.408  |ddm|= 0.596
HOMO:  -1.5253863059403503 LUMO:  -1.3996178979928358
Fermi energy:      -1.4625022409
[2. 2. 2. 2. 2. 2. 2. 2. 2. 2. 2. 2. 2. 2. 2. 2. 2.]
entropy correction =  -9.370757964109828e-07
cycle= 6 E= -392.079688245263  delta_E= -0.0262  |g|= 0.0184  |ddm|= 0.268
HOMO:  -1.5271915114141117 LUMO:  -1.3992483407324614
Fermi energy:      -1.4632201268
[2. 2. 2. 2. 2. 2. 2. 2. 2. 2. 2. 2. 2. 2. 2. 2. 2.]
[...]
cycle= 65 E= -390.674332530482  delta_E= 0.000479  |g|= 0.214  |ddm|= 0.34
HOMO:  -1.6736198922511891 LUMO:  -1.670633946175319
Fermi energy:      -1.6662639000
[2.     2.     2.     2.     2.     2.     2.     2.     1.8985 1.8919
 1.8842 1.8793 1.8754 1.8604 1.8452 1.8274 1.6265 1.4112]
entropy correction =  -0.0300017698881844
cycle= 66 E= -390.693536274032  delta_E= -0.0192  |g|= 0.0242  |ddm|= 0.236
HOMO:  -1.6741104426515274 LUMO:  -1.6711070517385795
Fermi energy:      -1.6667912721
[2.     2.     2.     2.     2.     2.     2.     2.     1.8989 1.882
 1.8793 1.8754 1.8724 1.8645 1.8505 1.8462 1.6242 1.4066]
entropy correction =  -0.029987542742957174
cycle= 67 E= -390.693675831667  delta_E= -0.00014  |g|= 0.024  |ddm|= 0.11
HOMO:  -1.6741524395843248 LUMO:  -1.6710944895765296
Fermi energy:      -1.6666512148
[2.     2.     2.     2.     2.     2.     2.     2.     1.8837 1.8784
 1.8737 1.8715 1.8697 1.8671 1.8567 1.8466 1.6352 1.4172]
entropy correction =  -0.030170315899569755
cycle= 68 E= -390.693298156742  delta_E= 0.000378  |g|= 0.0475  |ddm|= 0.0611
HOMO:  -1.6738903695203966 LUMO:  -1.6708825754100978
Fermi energy:      -1.6664937591
[2.     2.     2.     2.     2.     2.     2.     2.     1.8797 1.8776
 1.876  1.8731 1.872  1.8698 1.8603 1.85   1.6289 1.4127]
entropy correction =  -0.030099390706464973
cycle= 69 E= -390.693901565563  delta_E= -0.000603  |g|= 0.0233  |ddm|= 0.0232
HOMO:  -1.6738468072561796 LUMO:  -1.67084304249193
Fermi energy:      -1.6664171382
[2.     2.     2.     2.     2.     2.     2.     2.     1.8777 1.8769
 1.8744 1.8735 1.8728 1.8703 1.8583 1.8493 1.6309 1.4158]
entropy correction =  -0.030138403187985434
cycle= 70 E= -390.694082552714  delta_E= -0.000181  |g|= 0.006  |ddm|= 0.0153
HOMO:  -1.6738868490163281 LUMO:  -1.6708787950816695
Fermi energy:      -1.6664384663
[2.     2.     2.     2.     2.     2.     2.     2.     1.8775 1.8766
 1.8742 1.8736 1.8719 1.8712 1.8576 1.8485 1.6321 1.417 ]
entropy correction =  -0.030154873911133785
cycle= 71 E= -390.694086323007  delta_E= -3.77e-06  |g|= 0.00519  |ddm|= 0.00744
HOMO:  -1.6738831183725824 LUMO:  -1.670876557336443
Fermi energy:      -1.6664719275
[2.     2.     2.     2.     2.     2.     2.     2.     1.8769 1.8763
 1.8753 1.8739 1.8727 1.8716 1.8592 1.8501 1.6298 1.414 ]
entropy correction =  -0.030117258912014916
cycle= 72 E= -390.694092373908  delta_E= -6.05e-06  |g|= 0.0033  |ddm|= 0.00628
HOMO:  -1.6739182360093934 LUMO:  -1.6709091756504397
Fermi energy:      -1.6664818718
[2.     2.     2.     2.     2.     2.     2.     2.     1.8773 1.8758
 1.8746 1.8739 1.8729 1.871  1.8581 1.849  1.6313 1.4159]
entropy correction =  -0.030141754842819654
cycle= 73 E= -390.694096454621  delta_E= -4.08e-06  |g|= 0.00058  |ddm|= 0.00381
HOMO:  -1.6739048654157602 LUMO:  -1.6708968225515082
Fermi energy:      -1.6664753813
[2.     2.     2.     2.     2.     2.     2.     2.     1.8771 1.8762
 1.8744 1.874  1.8728 1.8713 1.8584 1.8493 1.6309 1.4154]
entropy correction =  -0.030135357121332668
cycle= 74 E= -390.694096686098  delta_E= -2.31e-07  |g|= 8.5e-05  |ddm|= 0.00133
HOMO:  -1.6739003746281302 LUMO:  -1.670892632284469
Fermi energy:      -1.6664717574
[2.     2.     2.     2.     2.     2.     2.     2.     1.8771 1.8762
 1.8744 1.874  1.8729 1.8713 1.8584 1.8494 1.6309 1.4154]
entropy correction =  -0.030134668031797172
cycle= 75 E= -390.694096686604  delta_E= -5.06e-10  |g|= 2.98e-05  |ddm|= 0.000265
HOMO:  -1.6739044780293095 LUMO:  -1.670896378080459
Fermi energy:      -1.6664748666
[2.     2.     2.     2.     2.     2.     2.     2.     1.8771 1.8762
 1.8744 1.8741 1.8727 1.8714 1.8584 1.8493 1.6309 1.4154]
entropy correction =  -0.030135457182995814
Extra cycle  E= -390.69409644522  delta_E= 2.41e-07  |g|= 0.000811  |ddm|= 0.000731
entropy correction =  -0.030135457182995814
rks_ao.ne_frozen =  0
Set gradient conv threshold to 3.16228e-05
tot grids = 139880
init E= -78.4460696461289
HOMO:  0.24084941217667427 LUMO:  0.29933076887329574
Fermi energy:       0.2685895151
[2.     2.     2.     2.     2.     2.     2.     2.     2.     2.
 2.     2.     2.     2.     2.     2.     2.     2.     2.     2.
 2.     2.     2.     1.9922 0.0043 0.0035]
entropy correction =  -0.0005358112565511578
cycle= 1 E= -86.0200528852872  delta_E= -7.57  |g|= 2.66  |ddm|=  9.2
HOMO:  0.8709924217614345 LUMO:  0.9878798679986589
Fermi energy:       0.9300326947
[2. 2. 2. 2. 2. 2. 2. 2. 2. 2. 2. 2. 2. 2. 2. 2. 2. 2. 2. 2. 2. 2. 2. 2.]
entropy correction =  -2.529347281661043e-06
cycle= 2 E= -86.8480862687799  delta_E= -0.828  |g|= 2.04  |ddm|= 4.91
HOMO:  1.0535677092430518 LUMO:  1.0544328631216882
Fermi energy:       1.0517643261
[2.0000e+00 2.0000e+00 2.0000e+00 2.0000e+00 2.0000e+00 2.0000e+00
 2.0000e+00 2.0000e+00 2.0000e+00 2.0000e+00 2.0000e+00 2.0000e+00
 2.0000e+00 2.0000e+00 2.0000e+00 2.0000e+00 2.0000e+00 2.0000e+00
 2.0000e+00 2.0000e+00 2.0000e+00 2.0000e+00 2.0000e+00 8.2159e-01
 7.3931e-01 2.4042e-01 1.1066e-01 4.8333e-02 2.7317e-02 1.1215e-02
 1.1536e-03]
entropy correction =  -0.02142767931270285
cycle= 3 E= -88.1482496251179  delta_E= -1.3  |g|= 0.36  |ddm|= 2.94
HOMO:  0.9636757454812201 LUMO:  0.9881488103337327
Fermi energy:       0.9748980411
[2.     2.     2.     2.     2.     2.     2.     2.     2.     2.
 2.     2.     2.     2.     2.     2.     2.     2.     2.     2.
 2.     2.     2.     1.8083 0.132  0.0248 0.0242 0.0065 0.0042]
entropy correction =  -0.007281071175090497
cycle= 4 E= -88.195571942864  delta_E= -0.0473  |g|= 0.214  |ddm|= 1.72
HOMO:  0.9978754764196249 LUMO:  1.0163249087487483
Fermi energy:       1.0039698344
[2.0000e+00 2.0000e+00 2.0000e+00 2.0000e+00 2.0000e+00 2.0000e+00
 2.0000e+00 2.0000e+00 2.0000e+00 2.0000e+00 2.0000e+00 2.0000e+00
 2.0000e+00 2.0000e+00 2.0000e+00 2.0000e+00 2.0000e+00 2.0000e+00
 2.0000e+00 2.0000e+00 2.0000e+00 2.0000e+00 2.0000e+00 1.5437e+00
 1.5583e-01 1.2485e-01 8.4141e-02 4.5592e-02 4.5457e-02 3.0202e-04]
entropy correction =  -0.014379290551832229
cycle= 5 E= -88.2116548672503  delta_E= -0.0161  |g|= 0.0586  |ddm|= 0.295
HOMO:  1.0094392965888845 LUMO:  1.023990278618618
Fermi energy:       1.0133903500
[2.0000e+00 2.0000e+00 2.0000e+00 2.0000e+00 2.0000e+00 2.0000e+00
 2.0000e+00 2.0000e+00 2.0000e+00 2.0000e+00 2.0000e+00 2.0000e+00
 2.0000e+00 2.0000e+00 2.0000e+00 2.0000e+00 2.0000e+00 2.0000e+00
 2.0000e+00 2.0000e+00 2.0000e+00 2.0000e+00 2.0000e+00 1.3758e+00
 2.1434e-01 1.5420e-01 1.0477e-01 1.0170e-01 4.8229e-02 7.2455e-04
 2.8207e-04]
entropy correction =  -0.017577361359492897
cycle= 6 E= -88.2131724592437  delta_E= -0.00152  |g|= 0.0158  |ddm|= 0.154
HOMO:  1.0090907326316065 LUMO:  1.0244020513930827
Fermi energy:       1.0134033484
[2.0000e+00 2.0000e+00 2.0000e+00 2.0000e+00 2.0000e+00 2.0000e+00
 2.0000e+00 2.0000e+00 2.0000e+00 2.0000e+00 2.0000e+00 2.0000e+00
 2.0000e+00 2.0000e+00 2.0000e+00 2.0000e+00 2.0000e+00 2.0000e+00
 2.0000e+00 2.0000e+00 2.0000e+00 2.0000e+00 2.0000e+00 1.4064e+00
 1.9955e-01 1.3978e-01 1.0481e-01 9.9263e-02 4.9085e-02 8.2421e-04
 3.1329e-04]
entropy correction =  -0.017094263781035374
cycle= 7 E= -88.2132453803294  delta_E= -7.29e-05  |g|= 0.00519  |ddm|= 0.0312
HOMO:  1.0102876066799285 LUMO:  1.024987924493329
Fermi energy:       1.0143124692
[2.0000e+00 2.0000e+00 2.0000e+00 2.0000e+00 2.0000e+00 2.0000e+00
 2.0000e+00 2.0000e+00 2.0000e+00 2.0000e+00 2.0000e+00 2.0000e+00
 2.0000e+00 2.0000e+00 2.0000e+00 2.0000e+00 2.0000e+00 2.0000e+00
 2.0000e+00 2.0000e+00 2.0000e+00 2.0000e+00 2.0000e+00 1.3821e+00
 2.1147e-01 1.4106e-01 1.0723e-01 1.0647e-01 5.0456e-02 8.8785e-04
 3.4710e-04]
entropy correction =  -0.01751034342466216
cycle= 8 E= -88.2132615448829  delta_E= -1.62e-05  |g|= 0.00135  |ddm|= 0.02
HOMO:  1.0102311510588564 LUMO:  1.0249655139622071
Fermi energy:       1.0142748457
[2.0000e+00 2.0000e+00 2.0000e+00 2.0000e+00 2.0000e+00 2.0000e+00
 2.0000e+00 2.0000e+00 2.0000e+00 2.0000e+00 2.0000e+00 2.0000e+00
 2.0000e+00 2.0000e+00 2.0000e+00 2.0000e+00 2.0000e+00 2.0000e+00
 2.0000e+00 2.0000e+00 2.0000e+00 2.0000e+00 2.0000e+00 1.3837e+00
 2.1089e-01 1.4069e-01 1.0683e-01 1.0631e-01 5.0362e-02 8.8610e-04
 3.4556e-04]
entropy correction =  -0.017482969158027682
cycle= 9 E= -88.2132622990392  delta_E= -7.54e-07  |g|= 0.000687  |ddm|= 0.00339
HOMO:  1.0101429293188917 LUMO:  1.024926184370052
Fermi energy:       1.0142124346
[2.0000e+00 2.0000e+00 2.0000e+00 2.0000e+00 2.0000e+00 2.0000e+00
 2.0000e+00 2.0000e+00 2.0000e+00 2.0000e+00 2.0000e+00 2.0000e+00
 2.0000e+00 2.0000e+00 2.0000e+00 2.0000e+00 2.0000e+00 2.0000e+00
 2.0000e+00 2.0000e+00 2.0000e+00 2.0000e+00 2.0000e+00 1.3859e+00
 2.1002e-01 1.4032e-01 1.0626e-01 1.0606e-01 5.0239e-02 8.8191e-04
 3.4333e-04]
entropy correction =  -0.01744552105403939
cycle= 10 E= -88.2132625677149  delta_E= -2.69e-07  |g|= 0.000215  |ddm|= 0.00209
HOMO:  1.0101382730196147 LUMO:  1.0249234794585187
Fermi energy:       1.0142091788
[2.0000e+00 2.0000e+00 2.0000e+00 2.0000e+00 2.0000e+00 2.0000e+00
 2.0000e+00 2.0000e+00 2.0000e+00 2.0000e+00 2.0000e+00 2.0000e+00
 2.0000e+00 2.0000e+00 2.0000e+00 2.0000e+00 2.0000e+00 2.0000e+00
 2.0000e+00 2.0000e+00 2.0000e+00 2.0000e+00 2.0000e+00 1.3860e+00
 2.1000e-01 1.4028e-01 1.0621e-01 1.0605e-01 5.0238e-02 8.8167e-04
 3.4324e-04]
entropy correction =  -0.017443442363555377
cycle= 11 E= -88.2132625919572  delta_E= -2.42e-08  |g|= 2.47e-05  |ddm|= 0.000521
HOMO:  1.0101379966614794 LUMO:  1.0249215323118772
Fermi energy:       1.0142084647
[2.0000e+00 2.0000e+00 2.0000e+00 2.0000e+00 2.0000e+00 2.0000e+00
 2.0000e+00 2.0000e+00 2.0000e+00 2.0000e+00 2.0000e+00 2.0000e+00
 2.0000e+00 2.0000e+00 2.0000e+00 2.0000e+00 2.0000e+00 2.0000e+00
 2.0000e+00 2.0000e+00 2.0000e+00 2.0000e+00 2.0000e+00 1.3860e+00
 2.1005e-01 1.4027e-01 1.0620e-01 1.0604e-01 5.0247e-02 8.8165e-04
 3.4319e-04]
entropy correction =  -0.01744399869971052
cycle= 12 E= -88.2132625921747  delta_E= -2.17e-10  |g|= 9.7e-06  |ddm|= 6.11e-05
HOMO:  1.0101341483088737 LUMO:  1.0249191775196138
Fermi energy:       1.0142055136
[2.0000e+00 2.0000e+00 2.0000e+00 2.0000e+00 2.0000e+00 2.0000e+00
 2.0000e+00 2.0000e+00 2.0000e+00 2.0000e+00 2.0000e+00 2.0000e+00
 2.0000e+00 2.0000e+00 2.0000e+00 2.0000e+00 2.0000e+00 2.0000e+00
 2.0000e+00 2.0000e+00 2.0000e+00 2.0000e+00 2.0000e+00 1.3860e+00
 2.1002e-01 1.4026e-01 1.0618e-01 1.0602e-01 5.0242e-02 8.8134e-04
 3.4308e-04]
entropy correction =  -0.017442652585164743
Extra cycle  E= -88.2132625920547  delta_E= 1.2e-10  |g|= 1.89e-05  |ddm|= 7.34e-05
entropy correction =  -0.017442652585164743
scf energies:
EA (no vemb contrib.) =  -445.2350871184137
EB (no vemb contrib.) =  -181.2053752930296
W =  -626.1343538954955
P_imp change (scf - non-scf):  0.03051275682989279
P_bath change (scf - non-scf):  0.03289436891462539
|P_frag + P_env - P_ref| =  0.5223897200129565
max element of (P_frag + P_env - P_ref) =  0.06864741771163202
mo orthogonality:
[[ 2.7771e-03  4.9635e-06  1.0360e-05  1.8497e-07  1.2155e-02  3.4051e-06
   1.2255e-06 -8.7766e-05  1.8811e-03  2.0843e-04 -2.1490e-04  2.1884e-06
  -1.1199e-04  2.6664e-06 -1.2123e-04 -2.1830e-03  3.5510e-03 -1.5137e-04
   6.9931e-06 -1.7379e-04  2.0077e-05 -1.0095e-02  2.9038e-05  2.0217e-05
   2.6560e-05  1.9631e-01  2.2183e-03  1.7737e-03  7.8672e-04  3.7577e-02
  -5.0131e-03]
 [-2.1833e-04  6.6792e-03 -3.0460e-05  2.8291e-05  2.1618e-04  1.3092e-05
  -4.0403e-06 -1.1499e-04  3.3723e-06 -1.3468e-07 -7.7997e-06 -2.6033e-04
   8.2660e-06  1.8223e-04  5.0438e-03 -6.3692e-05  6.0310e-05  1.5990e-05
  -1.2892e-06 -2.7380e-05 -3.3023e-03 -1.9237e-04  1.8743e-05  1.1276e-05
   1.4997e-04  3.2435e-03 -1.3186e-01 -1.0805e-01 -5.2819e-05  1.0661e-03
   7.7881e-04]
 [ 2.5301e-04  5.6948e-06 -7.7691e-06 -4.7263e-07  1.5210e-04 -3.0514e-07
  -7.8151e-07  3.3046e-05 -2.0497e-05  7.3704e-06 -1.6506e-05 -2.9799e-06
  -3.9958e-05  2.7885e-06  2.2355e-05 -1.4374e-04  2.3490e-04 -2.6234e-05
  -9.4414e-07  3.6883e-05  3.2585e-05  5.7455e-05  2.7131e-06  5.8403e-06
   4.0103e-05 -1.1243e-02  3.4130e-04  3.4505e-04  1.8454e-04  2.3693e-02
  -3.5328e-03]
 [ 2.0570e-06  4.7262e-06  7.0550e-04 -6.2908e-06 -4.0553e-06 -1.1046e-04
  -5.6298e-07 -4.6233e-07  4.7760e-05 -4.3777e-04  8.5241e-04  2.3983e-05
  -2.5339e-05  2.5119e-06  3.7552e-06  1.5009e-05  7.3142e-05  4.6765e-04
   2.5036e-06 -5.2571e-06  1.4592e-06  8.0302e-06  4.3240e-04 -1.0474e-03
  -6.7843e-05 -5.1849e-05 -3.2640e-03  3.8681e-03  1.2414e-04 -1.6996e-03
  -8.6472e-03]
 [ 8.0649e-07  7.3358e-06 -6.7338e-05 -2.5353e-05 -4.5533e-07 -1.2742e-03
  -3.0398e-05  2.0567e-05 -4.7388e-06  3.8865e-05 -9.0294e-05  2.0552e-04
   4.7019e-06  9.9565e-06  6.1146e-06  4.8851e-04  2.9690e-04 -3.5850e-05
   2.9883e-05  1.4608e-05  2.1020e-05  4.4530e-06  4.3736e-03  1.0269e-04
  -1.6678e-03  4.1462e-05 -3.3261e-02  4.0535e-02 -9.0269e-05 -9.5196e-05
   7.6997e-04]
 [ 4.0463e-06 -2.5172e-04 -2.7423e-06  6.3906e-06  3.1961e-06 -1.7755e-08
  -7.0616e-05  1.9698e-03  8.0062e-05  2.1718e-06 -6.5306e-06 -3.8506e-05
   4.8461e-06  5.6837e-05  1.2215e-03  1.2846e-05 -2.6534e-06  5.8854e-06
  -4.8635e-06  1.4298e-05  1.6731e-03 -9.7806e-06 -3.7460e-06  5.0317e-06
   6.4624e-04  1.7543e-04  1.9526e-02  1.6094e-02 -7.5809e-05 -4.8122e-04
   1.3899e-04]
 [-4.8344e-07  1.1924e-05  2.4579e-06 -3.5269e-05  3.2199e-07 -9.3189e-05
   1.3598e-03  2.4891e-05  7.6266e-07 -3.4387e-06 -5.7365e-07 -4.5075e-05
   8.5058e-07 -3.0768e-06 -5.6188e-06  2.5437e-05  1.4624e-05 -2.8367e-06
   6.2139e-04  5.1196e-07 -2.0072e-05  7.7615e-07  1.7798e-04  1.4155e-06
   7.3659e-02  1.0034e-05 -1.0732e-03  1.0593e-03 -5.6798e-03 -8.7264e-05
  -1.7703e-04]
 [ 1.9321e-06 -7.5472e-08 -6.1582e-05 -5.0410e-07 -6.9964e-06 -7.4384e-06
   6.9383e-05  4.3981e-06 -3.1129e-05  1.4521e-04 -1.9025e-05 -7.4461e-06
   3.4241e-07 -1.6503e-06  1.8257e-06  2.8700e-07  1.8003e-06  5.1263e-05
   4.4012e-05  6.3178e-07 -9.4422e-06  1.3300e-05  1.2413e-05 -7.4332e-06
   3.5492e-03 -3.3376e-04  2.4001e-05  1.1038e-04  1.1673e-01  1.4813e-03
   3.8349e-03]
 [ 9.5295e-05 -2.5562e-04 -8.5427e-06  5.4628e-06 -4.5463e-05  1.8267e-06
   3.7672e-04  9.0704e-03  1.0664e-03  3.5035e-04  1.6449e-04  1.7390e-04
   1.0948e-03  1.3153e-03 -1.6574e-03 -1.2640e-05  2.2513e-04 -5.4746e-06
  -2.2182e-03  1.0565e-03 -5.5317e-03  4.5613e-04  3.6597e-04 -1.3456e-05
   3.8917e-04  1.3822e-03 -1.3205e-02 -1.0897e-02 -1.3931e-05 -5.6550e-04
   8.0358e-05]
 [ 3.8535e-04  8.6995e-05 -1.6707e-05 -6.3817e-05  3.9481e-04  6.2768e-05
   2.1097e-03 -2.3905e-03  3.1130e-03  2.2583e-03  8.6217e-04 -3.9044e-04
   3.2900e-04  4.9931e-03  3.8628e-04 -8.5684e-04  1.6085e-03 -6.8719e-05
  -6.1436e-03  3.3180e-04  1.2119e-03  3.1778e-03 -2.6611e-04  6.7616e-05
   8.9111e-04 -3.0760e-03 -1.0858e-02 -8.7170e-03 -1.5334e-04 -3.9356e-03
   4.0507e-04]
 [ 8.6605e-04  1.7223e-05 -3.9294e-06  2.5570e-05  7.7914e-04 -2.5532e-05
  -1.2240e-03  3.4441e-04  7.8030e-03 -1.2009e-03 -1.3150e-03  9.2562e-05
  -2.3873e-03 -2.5055e-04 -1.1443e-04 -2.0177e-03  3.2052e-03 -3.1341e-04
   3.6669e-03 -2.0699e-03 -4.1238e-04  7.1274e-03  4.2044e-05  4.5806e-04
  -5.3531e-04 -1.0226e-02 -9.7200e-04 -8.7823e-04  3.0734e-04 -9.8497e-03
   1.7449e-03]
 [-8.8389e-07 -1.2672e-05 -4.0138e-06 -2.0169e-05 -1.1374e-05  1.9226e-05
  -2.8325e-03  1.8302e-04 -2.8787e-04  3.0151e-03  1.5878e-03 -1.8986e-04
   1.9398e-03  2.9194e-03 -6.9998e-05  9.6861e-05  1.2156e-04  7.8484e-05
   8.5548e-03  1.9136e-03 -2.9594e-04 -1.2355e-04 -4.1069e-04  2.8571e-04
  -1.2159e-03 -1.6269e-03 -6.6750e-03 -5.4413e-03 -8.7767e-04 -4.3051e-04
  -2.3552e-04]
 [-3.7317e-04 -4.2048e-05  1.3200e-05 -7.5300e-06 -3.2698e-04  8.1658e-06
  -5.6200e-04  9.3966e-04 -3.1964e-03 -2.1406e-03 -9.5526e-04 -2.0981e-04
  -4.9158e-03  4.4484e-03 -1.6334e-04  9.9622e-04 -1.4577e-03  5.4249e-05
   1.6307e-03 -5.4407e-03 -6.4989e-04 -2.9524e-03 -1.0070e-04 -5.0996e-04
  -1.9544e-04  1.9384e-02 -1.1605e-02 -9.4600e-03  3.8810e-04  7.7604e-03
  -9.3122e-04]
 [ 6.9972e-05 -1.7417e-05 -1.0560e-05 -5.0557e-05  5.8165e-05  4.7752e-05
   2.9533e-04  9.0871e-04  1.1347e-04  4.4818e-03  2.0998e-03  4.6030e-05
  -4.7092e-03 -2.5233e-03 -1.0789e-04  1.1483e-05  2.6312e-04  7.0417e-05
  -1.0493e-03 -4.7234e-03 -4.2712e-04  5.6886e-04 -2.6335e-04  1.6086e-04
   1.2822e-04  9.8549e-03  2.3562e-03  2.0177e-03 -9.1266e-04  1.5419e-03
  -7.1728e-04]
 [ 4.4185e-05 -4.0914e-05 -4.7261e-06 -4.8418e-05  4.0960e-05  7.3916e-05
   9.9172e-05 -1.9613e-03 -8.2831e-05  8.4976e-05  2.5833e-05  2.7951e-05
  -7.6760e-05  6.3271e-04 -2.8039e-03  8.7854e-05  1.5833e-05 -2.5712e-05
  -7.4599e-05 -6.7625e-05  3.4922e-03  2.5008e-05 -2.4525e-04  4.7617e-04
  -4.0949e-04  1.2137e-02  1.8362e-01  1.5015e-01  1.1381e-04  2.4069e-03
  -1.0706e-03]
 [ 1.5650e-05  8.5973e-07  1.0363e-06 -5.4191e-05  2.0875e-04  6.2143e-05
  -1.1145e-05 -1.9635e-05 -1.6540e-03 -1.7872e-04 -6.9352e-05 -8.6930e-05
   4.7896e-04 -1.8504e-04  1.2223e-04 -4.9661e-04  1.0717e-03 -3.0062e-05
   5.2433e-05  4.3826e-04  6.9826e-05 -2.8644e-03 -1.8955e-04  6.0386e-04
   4.6630e-05  2.9281e-01 -6.8056e-03 -5.5149e-03  6.2200e-04  7.0368e-02
  -1.0370e-02]
 [-1.2294e-05  4.4702e-05 -1.8042e-04  2.8610e-02  2.9156e-06 -3.0604e-02
  -7.2232e-04  1.5718e-03 -8.2165e-05 -7.1456e-05 -5.7277e-07  4.6626e-02
   9.2306e-05  2.4509e-03  1.7788e-03 -5.9967e-02 -3.7088e-02 -1.1031e-03
   9.3649e-04  4.3258e-04  8.2498e-04  1.9236e-04  1.4478e-01 -2.3180e-03
  -4.6057e-04  4.4702e-04  2.2295e-02 -2.6625e-02 -5.1620e-06 -1.3230e-05
  -7.1946e-04]
 [ 1.0080e-04 -6.0336e-05 -1.1479e-02 -9.5695e-05  4.0728e-05  1.9869e-05
   8.8891e-06 -3.8572e-05  8.0171e-04 -9.9094e-04  1.6618e-03 -4.2244e-05
  -8.4646e-05 -6.7742e-07 -2.1527e-05  2.4645e-04  2.2323e-04  1.6440e-03
  -8.5179e-06 -4.6336e-05  6.2259e-08  2.5812e-04 -8.2044e-04 -4.0811e-01
   5.3843e-06  3.7258e-04  1.6740e-04  4.8160e-04 -4.3053e-04 -9.3043e-03
  -6.1863e-02]]
|P_imp-P_imp_0| =  0.03051275682989279
max(P_imp-P_imp_0) =  0.004177879238455612
|P_bath-P_bath_0| =  0.03289436891462539
max(P_bath-P_bath_0) =  0.003375925948526176
time of total calc time : 111384.040  (cpu),  2923.244  (wall) 

At iterate   54    f=   8.375380738519E-02    |proj g|=  8.792548452E-02

At iterate   55    f=   8.373474341947E-02    |proj g|=  4.223077414E-02

At iterate   56    f=   8.373372235769E-02    |proj g|=  5.235637622E-02

At iterate   57    f=   8.373242937815E-02    |proj g|=  2.751448739E-02

At iterate   58    f=   8.372317229144E-02    |proj g|=  5.466761103E-02

At iterate   59    f=   8.371307517795E-02    |proj g|=  4.076057990E-02

At iterate   60    f=   8.370608791697E-02    |proj g|=  7.227574390E-02

At iterate   61    f=   8.370491947910E-02    |proj g|=  8.425503324E-02

At iterate   62    f=   8.370334479573E-02    |proj g|=  5.360181266E-02

At iterate   63    f=   8.368812848957E-02    |proj g|=  3.378572339E-02

At iterate   64    f=   8.368064037243E-02    |proj g|=  1.187400843E-01

At iterate   65    f=   8.367496445918E-02    |proj g|=  3.705230364E-02

At iterate   66    f=   8.367493798489E-02    |proj g|=  3.702874898E-02

At iterate   67    f=   8.367490727744E-02    |proj g|=  2.685342437E-02

At iterate   68    f=   8.367513555353E-02    |proj g|=  2.577588055E-02

           * * *

Tit   = total number of iterations
Tnf   = total number of function evaluations
Tnint = total number of segments explored during Cauchy searches
Skip  = number of BFGS updates skipped
Nact  = number of active bounds at final generalized Cauchy point
Projg = norm of the final projected gradient
F     = final function value

           * * *

   N    Tit     Tnf  Tnint  Skip  Nact     Projg        F
 4278     68     91      1     0     0   2.578D-02   8.368D-02
  F =   8.3675135553533148E-002

CONVERGENCE: REL_REDUCTION_OF_F_<=_FACTR*EPSMCH             

 Cauchy                time 0.000E+00 seconds.
 Subspace minimization time 0.000E+00 seconds.
 Line search           time 0.000E+00 seconds.

 Total User time 0.000E+00 seconds.

