#INFO: **** input file is /tigress/xingz/pydmfet/examples/research/proj/Cu2/dmfet/Cu2.py ****
from pydmfet import locints, sdmfet, oep, tools, dfet_ao, proj_ao
from pydmfet.dfet_ao import dfet
from pydmfet.qcwrap.pyscf_rks_ao import rks_ao
from pyscf import gto, scf,dft, ao2mo,cc
import numpy as np
from pyscf.tools import molden, cubegen
import copy,time
from pydmfet.tools.sym import h_lattice_sym_tab
import time

t0 = (time.clock(), time.time())


bas = 'lanl2dz'
ecp = 'lanl2dz'
temp = 0.005


mol = gto.Mole()
mol.atom = open('Cu2.xyz').read()
mol.basis = bas
mol.ecp = ecp
mol.charge = -2
mol.build(max_memory = 16000, verbose=4)

mf = rks_ao(mol,smear_sigma = temp)
mf.xc = 'pbe,pbe'
mf.max_cycle = 50
mf.scf(dm0=None)


natoms = mol.natm
impAtom = np.zeros([natoms], dtype=int)
for i in range(2):
    impAtom[i] = 1

ghost_frag = 1-impAtom
ghost_env = 1-ghost_frag

mol_frag = gto.Mole()
mol_frag.atom = tools.add_ghost(mol.atom, ghost_frag)
mol_frag.basis = bas
mol_frag.ecp = ecp
mol_frag.charge = 4
mol_frag.build(max_memory = 16000,verbose = 4)

mol_env = gto.Mole()
mol_env.atom = tools.add_ghost(mol.atom, ghost_env)
mol_env.basis =  bas
mol_env.ecp = ecp
mol_env.charge = -6
mol_env.build(max_memory = 16000,verbose = 4)

Ne_frag = 34
Ne_env = 48

boundary_atoms = None
boundary_atoms2 =None

umat = None
umat = np.load("umat.npy")

params = oep.OEPparams(algorithm = 'leastsq', opt_method = 'L-BFGS-B', diffP_tol=1e-3, outer_maxit = 20)
params.options['ftol'] = 1e-9
params.options['gtol'] = 1e-3
params.options['maxiter'] = 50
params.options['svd_thresh'] = 1e-2

theDMFET = dfet.DFET(mf, mol_frag, mol_env,Ne_frag,Ne_env,\
                     boundary_atoms=boundary_atoms, boundary_atoms2=boundary_atoms2,umat = umat,\
                     oep_params=params, smear_sigma=temp, ecw_method = 'hf',mf_method = mf.xc, plot_dens=True,\
                     scf_max_cycle = 200)

umat = theDMFET.embedding_potential()

t1 = tools.timer("total calc time", t0)
#INFO: ******************** input file end ********************


System: uname_result(system='Linux', node='tiger-i25c1n4', release='3.10.0-957.27.2.el7.x86_64', version='#1 SMP Tue Jul 30 11:12:20 EDT 2019', machine='x86_64', processor='x86_64')  Threads 40
Python 3.7.0 (default, Jun 28 2018, 13:15:42) 
[GCC 7.2.0]
numpy 1.16.4  scipy 1.4.0.dev0+0f78e0f
Date: Sat Sep  7 17:11:19 2019
PySCF version 1.5
PySCF path  /home/xingz/.local/lib/python3.7/site-packages/pyscf

[CONFIG] conf_file None
[INPUT] verbose = 4
[INPUT] num. atoms = 8
[INPUT] num. electrons = 82
[INPUT] charge = -2
[INPUT] spin (= nelec alpha-beta = 2S) = 0
[INPUT] symmetry False subgroup None
[INPUT] Mole.unit = angstrom
[INPUT]  1 Cu    -0.441980000000   1.042360000000  -0.035730000000 AA   -0.835221152535   1.969774923202  -0.067519914431 Bohr
[INPUT]  2 Cu     2.942440000000   1.248890000000   0.035730000000 AA    5.560405737965   2.360060059708   0.067519914431 Bohr
[INPUT]  3 Cl    -1.897990000000  -0.682570000000   0.075050000000 AA   -3.586681287163  -1.289870360844   0.141823945649 Bohr
[INPUT]  4 Cl    -2.090880000000   2.577820000000  -0.212080000000 AA   -3.951190559331   4.871373798426  -0.400773116498 Bohr
[INPUT]  5 Cl     1.158810000000   2.690810000000  -0.136080000000 AA    2.189833530407   5.084893953241  -0.257153931031 Bohr
[INPUT]  6 Cl     1.341650000000  -0.399560000000   0.136080000000 AA    2.535351055023  -0.755058970331   0.257153931031 Bohr
[INPUT]  7 Cl     4.398440000000   2.973820000000  -0.075050000000 AA    8.311846975332   5.619705343754  -0.141823945649 Bohr
[INPUT]  8 Cl     4.591340000000  -0.286580000000   0.212080000000 AA    8.676375144761  -0.541557712778   0.400773116498 Bohr

nuclear repulsion = 451.217501293853
number of shells = 38
number of NR pGTOs = 162
number of NR cGTOs = 92
basis = lanl2dz
ecp = lanl2dz
CPU time:         3.14
rks_ao.ne_frozen =  0


******** <class 'pydmfet.qcwrap.pyscf_rks_ao.rks_ao'> flags ********
method = rks_ao-RKS-RHF
initial guess = minao
damping factor = 0
level shift factor = 0
DIIS = <class 'pyscf.scf.diis.CDIIS'>
DIIS start cycle = 1
DIIS space = 8
SCF tol = 1e-09
SCF gradient tol = None
max. SCF cycles = 50
direct_scf = False
chkfile to save SCF result = /tmp/tmpqrq0ksxp
max_memory 16000 MB (current use 66 MB)
XC functionals = pbe,pbe
small_rho_cutoff = 1e-07
radial grids: 
    Treutler-Ahlrichs (JCP 102, 346 (M4)) radial grids
    
becke partition: Becke, JCP, 88, 2547 (1988)
pruning grids: <function nwchem_prune at 0x2b0eb01d7400>
grids dens level: 3
symmetrized grids: False
atomic radii adjust function: <function treutler_atomic_radii_adjust at 0x2b0eb01d7378>
Set gradient conv threshold to 3.16228e-05
tot grids = 154128
init E= -467.462792451998
HOMO:  0.21874871437076043 LUMO:  0.22831437501940616
Fermi energy:       0.2235718634
[2.     2.     2.     2.     2.     2.     2.     2.     2.     2.
 2.     2.     2.     2.     2.     2.     2.     2.     2.     2.
 2.     2.     2.     2.     2.     2.     2.     2.     2.     2.
 2.     2.     2.     2.     2.     2.     2.     2.     2.     1.9935
 1.4481 0.5584]
entropy correction =  -0.012030461857606105
cycle= 1 E= -410.105804071394  delta_E= 57.4  |g|= 8.39  |ddm|= 25.9
HOMO:  -1.5630096420726167 LUMO:  -1.5367266498379
Fermi energy:      -1.5499972181
[2.0000e+00 2.0000e+00 2.0000e+00 2.0000e+00 2.0000e+00 2.0000e+00
 2.0000e+00 2.0000e+00 2.0000e+00 2.0000e+00 2.0000e+00 2.0000e+00
 2.0000e+00 2.0000e+00 2.0000e+00 2.0000e+00 2.0000e+00 2.0000e+00
 2.0000e+00 2.0000e+00 2.0000e+00 2.0000e+00 2.0000e+00 2.0000e+00
 2.0000e+00 2.0000e+00 2.0000e+00 2.0000e+00 2.0000e+00 2.0000e+00
 2.0000e+00 2.0000e+00 2.0000e+00 2.0000e+00 2.0000e+00 2.0000e+00
 2.0000e+00 2.0000e+00 2.0000e+00 1.9796e+00 1.8620e+00 1.3147e-01
 2.6598e-02 2.7833e-04]
entropy correction =  -0.00622392251891532
cycle= 2 E= -401.538612213434  delta_E= 8.57  |g|= 7.31  |ddm|= 29.4
HOMO:  -0.13457902039486636 LUMO:  -0.05948338425679698
Fermi energy:      -0.0972415566
[2.0000e+00 2.0000e+00 2.0000e+00 2.0000e+00 2.0000e+00 2.0000e+00
 2.0000e+00 2.0000e+00 2.0000e+00 2.0000e+00 2.0000e+00 2.0000e+00
 2.0000e+00 2.0000e+00 2.0000e+00 2.0000e+00 2.0000e+00 2.0000e+00
 2.0000e+00 2.0000e+00 2.0000e+00 2.0000e+00 2.0000e+00 2.0000e+00
 2.0000e+00 2.0000e+00 2.0000e+00 2.0000e+00 2.0000e+00 2.0000e+00
 2.0000e+00 2.0000e+00 2.0000e+00 2.0000e+00 2.0000e+00 2.0000e+00
 2.0000e+00 2.0000e+00 2.0000e+00 2.0000e+00 1.9989e+00 1.0500e-03]
entropy correction =  -9.86246310849678e-05
cycle= 3 E= -466.993953695778  delta_E= -65.5  |g|= 5.85  |ddm|= 17.5
HOMO:  -0.1963237795385971 LUMO:  -0.19597791274159782
Fermi energy:      -0.1928443984
[2.     2.     2.     2.     2.     2.     2.     2.     2.     2.
 2.     2.     2.     2.     2.     2.     2.     2.     2.     2.
 2.     2.     2.     2.     2.     2.     2.     2.     2.     2.
 2.     2.     1.9998 1.9993 1.9979 1.9965 1.9471 1.9432 1.7416 1.7367
 1.3345 1.3035]
entropy correction =  -0.023337439476189523
cycle= 4 E= -479.585920348137  delta_E= -12.6  |g|= 3.08  |ddm|=   11
HOMO:  -0.05933827387168959 LUMO:  -0.05834657233046736
Fermi energy:      -0.0587610219
[2.     2.     2.     2.     2.     2.     2.     2.     2.     2.
 2.     2.     2.     2.     2.     2.     2.     2.     2.     2.
 2.     2.     2.     2.     2.     2.     2.     2.     2.     2.
 2.     2.     2.     2.     2.     2.     2.     2.     1.9952 1.9886
 1.0577 0.9586]
entropy correction =  -0.014359029431147745
cycle= 5 E= -480.692882283188  delta_E= -1.11  |g|= 2.31  |ddm|= 2.58
HOMO:  -0.08914554980589189 LUMO:  -0.08619386496822923
Fermi energy:      -0.0862274399
[2.     2.     2.     2.     2.     2.     2.     2.     2.     2.
 2.     2.     2.     2.     2.     2.     2.     2.     2.     2.
 2.     2.     2.     2.     2.     2.     2.     2.     2.     2.
 2.     2.     2.     1.9996 1.9996 1.9987 1.9985 1.9947 1.9796 1.7489
 1.2838 0.9966]
entropy correction =  -0.018143353044552817
cycle= 6 E= -481.537345800993  delta_E= -0.844  |g|= 1.68  |ddm|= 1.24
HOMO:  -0.036723945372831156 LUMO:  -0.03666691925234399
Fermi energy:      -0.0355754632
[2.     2.     2.     2.     2.     2.     2.     2.     2.     2.
 2.     2.     2.     2.     2.     2.     2.     2.     2.     2.
 2.     2.     2.     2.     2.     2.     2.     2.     2.     2.
 2.     2.     1.9994 1.9978 1.9955 1.9897 1.9852 1.9687 1.9249 1.9157
 1.1143 1.1087]
entropy correction =  -0.018924041241956506
cycle= 7 E= -481.434005675676  delta_E= 0.103  |g|= 1.83  |ddm|= 1.23
HOMO:  -0.031738420051061506 LUMO:  -0.028304041170013998
Fermi energy:      -0.0293123723
[2.     2.     2.     2.     2.     2.     2.     2.     2.     2.
 2.     2.     2.     2.     2.     2.     2.     2.     2.     2.
 2.     2.     2.     2.     2.     2.     2.     2.     2.     2.
 2.     2.     1.9999 1.9995 1.9994 1.9991 1.9991 1.9983 1.9857 1.8815
 1.238  0.8995]
entropy correction =  -0.016403779535512336
cycle= 8 E= -481.849488238144  delta_E= -0.415  |g|= 1.29  |ddm|= 1.31
HOMO:  -0.010333376747676398 LUMO:  0.0007074607330321794
Fermi energy:      -0.0039251597
[2.     2.     2.     2.     2.     2.     2.     2.     2.     2.
 2.     2.     2.     2.     2.     2.     2.     2.     2.     2.
 2.     2.     2.     2.     2.     2.     2.     2.     2.     2.
 2.     1.9993 1.9989 1.9983 1.9929 1.9922 1.9893 1.984  1.9793 1.9331
 1.5655 0.5673]
entropy correction =  -0.014677098352140278
cycle= 9 E= -482.044475986748  delta_E= -0.195  |g|= 1.07  |ddm|= 0.906
HOMO:  0.06987607242653789 LUMO:  0.0873648053819117
Fermi energy:       0.0786614214
[2.     2.     2.     2.     2.     2.     2.     2.     2.     2.
 2.     2.     2.     2.     2.     2.     2.     2.     2.     2.
 2.     2.     2.     2.     2.     2.     2.     2.     2.     2.
 2.     2.     2.     2.     2.     2.     1.9997 1.9996 1.9983 1.9983
 1.7057 0.2985]
entropy correction =  -0.008565033975483076
cycle= 10 E= -482.032581874272  delta_E= 0.0119  |g|= 0.915  |ddm|= 1.43
HOMO:  0.08962837484472315 LUMO:  0.13004696663869586
Fermi energy:       0.1120849792
[2.     2.     2.     2.     2.     2.     2.     2.     2.     2.
 2.     2.     2.     2.     2.     2.     2.     2.     2.     2.
 2.     2.     2.     2.     2.     2.     2.     2.     2.     2.
 2.     2.     2.     2.     2.     2.     2.     1.9948 1.9914 1.9824
 1.9778 0.0536]
entropy correction =  -0.0028063847771880334
cycle= 11 E= -481.373880258027  delta_E= 0.659  |g|=  1.9  |ddm|= 2.31
HOMO:  0.055026470074416224 LUMO:  0.06384159085227042
Fermi energy:       0.0595089658
[2.     2.     2.     2.     2.     2.     2.     2.     2.     2.
 2.     2.     2.     2.     2.     2.     2.     2.     2.     2.
 2.     2.     2.     2.     2.     2.     2.     2.     2.     2.
 2.     2.     2.     1.9999 1.9995 1.9994 1.9993 1.9992 1.9982 1.992
 1.4205 0.592 ]
entropy correction =  -0.012547716284845386
cycle= 12 E= -482.27181652961  delta_E= -0.898  |g|= 0.277  |ddm|= 1.34
HOMO:  0.056438609468137 LUMO:  0.07796708270743784
Fermi energy:       0.0675524746
[2.     2.     2.     2.     2.     2.     2.     2.     2.     2.
 2.     2.     2.     2.     2.     2.     2.     2.     2.     2.
 2.     2.     2.     2.     2.     2.     2.     2.     2.     2.
 2.     2.     2.     2.     2.     2.     1.9977 1.9957 1.995  1.9855
 1.8046 0.2215]
entropy correction =  -0.007530677363597375
cycle= 13 E= -482.060208342973  delta_E= 0.212  |g|= 0.773  |ddm|= 1.43
HOMO:  0.05617821663485207 LUMO:  0.06568034710062026
Fermi energy:       0.0610293925
[2.     2.     2.     2.     2.     2.     2.     2.     2.     2.
 2.     2.     2.     2.     2.     2.     2.     2.     2.     2.
 2.     2.     2.     2.     2.     2.     2.     2.     2.     2.
 2.     2.     1.9999 1.9998 1.9994 1.9992 1.9992 1.999  1.9978 1.9895
 1.4503 0.5658]
entropy correction =  -0.012402978286177162
cycle= 14 E= -482.267546249917  delta_E= -0.207  |g|= 0.281  |ddm|= 0.726
HOMO:  0.059301125979040664 LUMO:  0.06695698250282196
Fermi energy:       0.0631998465
[2.     2.     2.     2.     2.     2.     2.     2.     2.     2.
 2.     2.     2.     2.     2.     2.     2.     2.     2.     2.
 2.     2.     2.     2.     2.     2.     2.     2.     2.     2.
 2.     2.     1.9999 1.9998 1.9994 1.9994 1.9994 1.9993 1.9984 1.9921
 1.3712 0.641 ]
entropy correction =  -0.012948192702077668
cycle= 15 E= -482.288830978125  delta_E= -0.0213  |g|= 0.142  |ddm|= 0.204
HOMO:  0.06033518957806916 LUMO:  0.06854982973562548
Fermi energy:       0.0644944493
[2.     2.     2.     2.     2.     2.     2.     2.     2.     2.
 2.     2.     2.     2.     2.     2.     2.     2.     2.     2.
 2.     2.     2.     2.     2.     2.     2.     2.     2.     2.
 2.     2.     2.     1.9998 1.9996 1.9995 1.9994 1.9994 1.9988 1.9946
 1.3935 0.6153]
entropy correction =  -0.012649979495429248
cycle= 16 E= -482.286904601166  delta_E= 0.00193  |g|= 0.167  |ddm|= 0.0792
HOMO:  0.06025941721397162 LUMO:  0.0676477501128298
Fermi energy:       0.0640073155
[2.     2.     2.     2.     2.     2.     2.     2.     2.     2.
 2.     2.     2.     2.     2.     2.     2.     2.     2.     2.
 2.     2.     2.     2.     2.     2.     2.     2.     2.     2.
 2.     2.     2.     1.9998 1.9996 1.9995 1.9994 1.9992 1.9991 1.9941
 1.3582 0.6512]
entropy correction =  -0.01294674745185435
cycle= 17 E= -482.294507326456  delta_E= -0.0076  |g|= 0.0877  |ddm|= 0.123
HOMO:  0.06084883360942402 LUMO:  0.06807282694906533
Fermi energy:       0.0645100754
[2.     2.     2.     2.     2.     2.     2.     2.     2.     2.
 2.     2.     2.     2.     2.     2.     2.     2.     2.     2.
 2.     2.     2.     2.     2.     2.     2.     2.     2.     2.
 2.     2.     2.     1.9998 1.9996 1.9995 1.9995 1.9993 1.9991 1.9946
 1.3506 0.6581]
entropy correction =  -0.012975286931951234
cycle= 18 E= -482.296571538137  delta_E= -0.00206  |g|= 0.0329  |ddm|= 0.0713
HOMO:  0.061133911125678904 LUMO:  0.06835676585691298
Fermi energy:       0.0647923579
[2.     2.     2.     2.     2.     2.     2.     2.     2.     2.
 2.     2.     2.     2.     2.     2.     2.     2.     2.     2.
 2.     2.     2.     2.     2.     2.     2.     2.     2.     2.
 2.     2.     2.     1.9998 1.9996 1.9995 1.9995 1.9993 1.9992 1.9949
 1.3504 0.6579]
entropy correction =  -0.012962825255222507
cycle= 19 E= -482.296935691009  delta_E= -0.000364  |g|= 0.0135  |ddm|= 0.0338
HOMO:  0.06119730727739413 LUMO:  0.06843033123008598
Fermi energy:       0.0648595294
[2.     2.     2.     2.     2.     2.     2.     2.     2.     2.
 2.     2.     2.     2.     2.     2.     2.     2.     2.     2.
 2.     2.     2.     2.     2.     2.     2.     2.     2.     2.
 2.     2.     2.     1.9998 1.9996 1.9995 1.9995 1.9993 1.9992 1.995
 1.3507 0.6574]
entropy correction =  -0.012951982824268269
cycle= 20 E= -482.296785655081  delta_E= 0.00015  |g|= 0.0243  |ddm|= 0.0548
HOMO:  0.061244548653259484 LUMO:  0.06844552468672112
Fermi energy:       0.0648915484
[2.     2.     2.     2.     2.     2.     2.     2.     2.     2.
 2.     2.     2.     2.     2.     2.     2.     2.     2.     2.
 2.     2.     2.     2.     2.     2.     2.     2.     2.     2.
 2.     2.     2.     1.9998 1.9996 1.9995 1.9995 1.9993 1.9992 1.9949
 1.3493 0.6588]
entropy correction =  -0.012967051103265792
cycle= 21 E= -482.297009057675  delta_E= -0.000223  |g|= 0.00164  |ddm|= 0.0331
HOMO:  0.06122414634890043 LUMO:  0.06842042778568543
Fermi energy:       0.0648688810
[2.     2.     2.     2.     2.     2.     2.     2.     2.     2.
 2.     2.     2.     2.     2.     2.     2.     2.     2.     2.
 2.     2.     2.     2.     2.     2.     2.     2.     2.     2.
 2.     2.     2.     1.9998 1.9996 1.9995 1.9995 1.9993 1.9992 1.9949
 1.3491 0.6591]
entropy correction =  -0.012969079620143216
cycle= 22 E= -482.297010234362  delta_E= -1.18e-06  |g|= 0.000475  |ddm|= 0.0031
HOMO:  0.06121653587087502 LUMO:  0.06841620980232567
Fermi energy:       0.0648628034
[2.     2.     2.     2.     2.     2.     2.     2.     2.     2.
 2.     2.     2.     2.     2.     2.     2.     2.     2.     2.
 2.     2.     2.     2.     2.     2.     2.     2.     2.     2.
 2.     2.     2.     1.9998 1.9996 1.9995 1.9995 1.9993 1.9992 1.9949
 1.3493 0.6589]
entropy correction =  -0.01296702892928475
cycle= 23 E= -482.297010284208  delta_E= -4.98e-08  |g|= 0.000306  |ddm|= 0.000873
HOMO:  0.061212172486679484 LUMO:  0.06841131151301648
Fermi energy:       0.0648582839
[2.     2.     2.     2.     2.     2.     2.     2.     2.     2.
 2.     2.     2.     2.     2.     2.     2.     2.     2.     2.
 2.     2.     2.     2.     2.     2.     2.     2.     2.     2.
 2.     2.     2.     1.9998 1.9996 1.9995 1.9995 1.9993 1.9992 1.9949
 1.3493 0.6589]
entropy correction =  -0.012967844874130932
cycle= 24 E= -482.29701028794  delta_E= -3.73e-09  |g|= 0.000268  |ddm|= 0.000349
HOMO:  0.06121147137417061 LUMO:  0.06841074844285602
Fermi energy:       0.0648576491
[2.     2.     2.     2.     2.     2.     2.     2.     2.     2.
 2.     2.     2.     2.     2.     2.     2.     2.     2.     2.
 2.     2.     2.     2.     2.     2.     2.     2.     2.     2.
 2.     2.     2.     1.9998 1.9996 1.9995 1.9995 1.9993 1.9992 1.9949
 1.3493 0.6589]
entropy correction =  -0.01296778445715915
cycle= 25 E= -482.297010314489  delta_E= -2.65e-08  |g|= 2.89e-05  |ddm|= 0.000432
HOMO:  0.06121108351579339 LUMO:  0.0684103789736498
Fermi energy:       0.0648572733
[2.     2.     2.     2.     2.     2.     2.     2.     2.     2.
 2.     2.     2.     2.     2.     2.     2.     2.     2.     2.
 2.     2.     2.     2.     2.     2.     2.     2.     2.     2.
 2.     2.     2.     1.9998 1.9996 1.9995 1.9995 1.9993 1.9992 1.9949
 1.3493 0.6589]
entropy correction =  -0.012967794882220668
cycle= 26 E= -482.297010314762  delta_E= -2.73e-10  |g|= 6.77e-06  |ddm|= 3.23e-05
HOMO:  0.06121112483103495 LUMO:  0.06841041305903763
Fermi energy:       0.0648573123
[2.     2.     2.     2.     2.     2.     2.     2.     2.     2.
 2.     2.     2.     2.     2.     2.     2.     2.     2.     2.
 2.     2.     2.     2.     2.     2.     2.     2.     2.     2.
 2.     2.     2.     1.9998 1.9996 1.9995 1.9995 1.9993 1.9992 1.9949
 1.3493 0.6589]
entropy correction =  -0.012967804444706696
Extra cycle  E= -482.297010308465  delta_E= 6.3e-09  |g|= 0.000137  |ddm|= 0.000194
converged SCF energy = -482.297010308465
#INFO: **** input file is /tigress/xingz/pydmfet/examples/research/proj/Cu2/dmfet/Cu2.py ****
from pydmfet import locints, sdmfet, oep, tools, dfet_ao, proj_ao
from pydmfet.dfet_ao import dfet
from pydmfet.qcwrap.pyscf_rks_ao import rks_ao
from pyscf import gto, scf,dft, ao2mo,cc
import numpy as np
from pyscf.tools import molden, cubegen
import copy,time
from pydmfet.tools.sym import h_lattice_sym_tab
import time

t0 = (time.clock(), time.time())


bas = 'lanl2dz'
ecp = 'lanl2dz'
temp = 0.005


mol = gto.Mole()
mol.atom = open('Cu2.xyz').read()
mol.basis = bas
mol.ecp = ecp
mol.charge = -2
mol.build(max_memory = 16000, verbose=4)

mf = rks_ao(mol,smear_sigma = temp)
mf.xc = 'pbe,pbe'
mf.max_cycle = 50
mf.scf(dm0=None)


natoms = mol.natm
impAtom = np.zeros([natoms], dtype=int)
for i in range(2):
    impAtom[i] = 1

ghost_frag = 1-impAtom
ghost_env = 1-ghost_frag

mol_frag = gto.Mole()
mol_frag.atom = tools.add_ghost(mol.atom, ghost_frag)
mol_frag.basis = bas
mol_frag.ecp = ecp
mol_frag.charge = 4
mol_frag.build(max_memory = 16000,verbose = 4)

mol_env = gto.Mole()
mol_env.atom = tools.add_ghost(mol.atom, ghost_env)
mol_env.basis =  bas
mol_env.ecp = ecp
mol_env.charge = -6
mol_env.build(max_memory = 16000,verbose = 4)

Ne_frag = 34
Ne_env = 48

boundary_atoms = None
boundary_atoms2 =None

umat = None
umat = np.load("umat.npy")

params = oep.OEPparams(algorithm = 'leastsq', opt_method = 'L-BFGS-B', diffP_tol=1e-3, outer_maxit = 20)
params.options['ftol'] = 1e-9
params.options['gtol'] = 1e-3
params.options['maxiter'] = 50
params.options['svd_thresh'] = 1e-2

theDMFET = dfet.DFET(mf, mol_frag, mol_env,Ne_frag,Ne_env,\
                     boundary_atoms=boundary_atoms, boundary_atoms2=boundary_atoms2,umat = umat,\
                     oep_params=params, smear_sigma=temp, ecw_method = 'hf',mf_method = mf.xc, plot_dens=True,\
                     scf_max_cycle = 200)

umat = theDMFET.embedding_potential()

t1 = tools.timer("total calc time", t0)
#INFO: ******************** input file end ********************


System: uname_result(system='Linux', node='tiger-i25c1n4', release='3.10.0-957.27.2.el7.x86_64', version='#1 SMP Tue Jul 30 11:12:20 EDT 2019', machine='x86_64', processor='x86_64')  Threads 40
Python 3.7.0 (default, Jun 28 2018, 13:15:42) 
[GCC 7.2.0]
numpy 1.16.4  scipy 1.4.0.dev0+0f78e0f
Date: Sat Sep  7 17:11:43 2019
PySCF version 1.5
PySCF path  /home/xingz/.local/lib/python3.7/site-packages/pyscf

[CONFIG] conf_file None
[INPUT] verbose = 4
[INPUT] num. atoms = 8
[INPUT] num. electrons = 34
[INPUT] charge = 4
[INPUT] spin (= nelec alpha-beta = 2S) = 0
[INPUT] symmetry False subgroup None
[INPUT] Mole.unit = angstrom
[INPUT]  1 Cu    -0.441980000000   1.042360000000  -0.035730000000 AA   -0.835221152535   1.969774923202  -0.067519914431 Bohr
[INPUT]  2 Cu     2.942440000000   1.248890000000   0.035730000000 AA    5.560405737965   2.360060059708   0.067519914431 Bohr
[INPUT]  3 GHOST-Cl  -1.897990000000  -0.682570000000   0.075050000000 AA   -3.586681287163  -1.289870360844   0.141823945649 Bohr
[INPUT]  4 GHOST-Cl  -2.090880000000   2.577820000000  -0.212080000000 AA   -3.951190559331   4.871373798426  -0.400773116498 Bohr
[INPUT]  5 GHOST-Cl   1.158810000000   2.690810000000  -0.136080000000 AA    2.189833530407   5.084893953241  -0.257153931031 Bohr
[INPUT]  6 GHOST-Cl   1.341650000000  -0.399560000000   0.136080000000 AA    2.535351055023  -0.755058970331   0.257153931031 Bohr
[INPUT]  7 GHOST-Cl   4.398440000000   2.973820000000  -0.075050000000 AA    8.311846975332   5.619705343754  -0.141823945649 Bohr
[INPUT]  8 GHOST-Cl   4.591340000000  -0.286580000000   0.212080000000 AA    8.676375144761  -0.541557712778   0.400773116498 Bohr

nuclear repulsion = 56.3275059639967
number of shells = 38
number of NR pGTOs = 162
number of NR cGTOs = 92
basis = lanl2dz
ecp = lanl2dz
CPU time:       599.41
#INFO: **** input file is /tigress/xingz/pydmfet/examples/research/proj/Cu2/dmfet/Cu2.py ****
from pydmfet import locints, sdmfet, oep, tools, dfet_ao, proj_ao
from pydmfet.dfet_ao import dfet
from pydmfet.qcwrap.pyscf_rks_ao import rks_ao
from pyscf import gto, scf,dft, ao2mo,cc
import numpy as np
from pyscf.tools import molden, cubegen
import copy,time
from pydmfet.tools.sym import h_lattice_sym_tab
import time

t0 = (time.clock(), time.time())


bas = 'lanl2dz'
ecp = 'lanl2dz'
temp = 0.005


mol = gto.Mole()
mol.atom = open('Cu2.xyz').read()
mol.basis = bas
mol.ecp = ecp
mol.charge = -2
mol.build(max_memory = 16000, verbose=4)

mf = rks_ao(mol,smear_sigma = temp)
mf.xc = 'pbe,pbe'
mf.max_cycle = 50
mf.scf(dm0=None)


natoms = mol.natm
impAtom = np.zeros([natoms], dtype=int)
for i in range(2):
    impAtom[i] = 1

ghost_frag = 1-impAtom
ghost_env = 1-ghost_frag

mol_frag = gto.Mole()
mol_frag.atom = tools.add_ghost(mol.atom, ghost_frag)
mol_frag.basis = bas
mol_frag.ecp = ecp
mol_frag.charge = 4
mol_frag.build(max_memory = 16000,verbose = 4)

mol_env = gto.Mole()
mol_env.atom = tools.add_ghost(mol.atom, ghost_env)
mol_env.basis =  bas
mol_env.ecp = ecp
mol_env.charge = -6
mol_env.build(max_memory = 16000,verbose = 4)

Ne_frag = 34
Ne_env = 48

boundary_atoms = None
boundary_atoms2 =None

umat = None
umat = np.load("umat.npy")

params = oep.OEPparams(algorithm = 'leastsq', opt_method = 'L-BFGS-B', diffP_tol=1e-3, outer_maxit = 20)
params.options['ftol'] = 1e-9
params.options['gtol'] = 1e-3
params.options['maxiter'] = 50
params.options['svd_thresh'] = 1e-2

theDMFET = dfet.DFET(mf, mol_frag, mol_env,Ne_frag,Ne_env,\
                     boundary_atoms=boundary_atoms, boundary_atoms2=boundary_atoms2,umat = umat,\
                     oep_params=params, smear_sigma=temp, ecw_method = 'hf',mf_method = mf.xc, plot_dens=True,\
                     scf_max_cycle = 200)

umat = theDMFET.embedding_potential()

t1 = tools.timer("total calc time", t0)
#INFO: ******************** input file end ********************


System: uname_result(system='Linux', node='tiger-i25c1n4', release='3.10.0-957.27.2.el7.x86_64', version='#1 SMP Tue Jul 30 11:12:20 EDT 2019', machine='x86_64', processor='x86_64')  Threads 40
Python 3.7.0 (default, Jun 28 2018, 13:15:42) 
[GCC 7.2.0]
numpy 1.16.4  scipy 1.4.0.dev0+0f78e0f
Date: Sat Sep  7 17:11:43 2019
PySCF version 1.5
PySCF path  /home/xingz/.local/lib/python3.7/site-packages/pyscf

[CONFIG] conf_file None
[INPUT] verbose = 4
[INPUT] num. atoms = 8
[INPUT] num. electrons = 48
[INPUT] charge = -6
[INPUT] spin (= nelec alpha-beta = 2S) = 0
[INPUT] symmetry False subgroup None
[INPUT] Mole.unit = angstrom
[INPUT]  1 GHOST-Cu  -0.441980000000   1.042360000000  -0.035730000000 AA   -0.835221152535   1.969774923202  -0.067519914431 Bohr
[INPUT]  2 GHOST-Cu   2.942440000000   1.248890000000   0.035730000000 AA    5.560405737965   2.360060059708   0.067519914431 Bohr
[INPUT]  3 Cl    -1.897990000000  -0.682570000000   0.075050000000 AA   -3.586681287163  -1.289870360844   0.141823945649 Bohr
[INPUT]  4 Cl    -2.090880000000   2.577820000000  -0.212080000000 AA   -3.951190559331   4.871373798426  -0.400773116498 Bohr
[INPUT]  5 Cl     1.158810000000   2.690810000000  -0.136080000000 AA    2.189833530407   5.084893953241  -0.257153931031 Bohr
[INPUT]  6 Cl     1.341650000000  -0.399560000000   0.136080000000 AA    2.535351055023  -0.755058970331   0.257153931031 Bohr
[INPUT]  7 Cl     4.398440000000   2.973820000000  -0.075050000000 AA    8.311846975332   5.619705343754  -0.141823945649 Bohr
[INPUT]  8 Cl     4.591340000000  -0.286580000000   0.212080000000 AA    8.676375144761  -0.541557712778   0.400773116498 Bohr

nuclear repulsion = 93.9042733852809
number of shells = 38
number of NR pGTOs = 162
number of NR cGTOs = 92
basis = lanl2dz
ecp = lanl2dz
CPU time:       599.81


******** <class 'pydmfet.dfet_ao.scf.EmbedSCF'> flags ********
method = EmbedSCF-RKS-RHF
initial guess = minao
damping factor = 0
level shift factor = 0
DIIS = <class 'pyscf.scf.diis.CDIIS'>
DIIS start cycle = 1
DIIS space = 8
SCF tol = 1e-09
SCF gradient tol = None
max. SCF cycles = 200
direct_scf = False
chkfile to save SCF result = /tmp/tmpnxc3o6co
max_memory 16000 MB (current use 491 MB)
XC functionals = pbe,pbe
small_rho_cutoff = 1e-07
radial grids: 
    Treutler-Ahlrichs (JCP 102, 346 (M4)) radial grids
    
becke partition: Becke, JCP, 88, 2547 (1988)
pruning grids: <function nwchem_prune at 0x2b0eb01d7400>
grids dens level: 3
symmetrized grids: False
atomic radii adjust function: <function treutler_atomic_radii_adjust at 0x2b0eb01d7378>
Set gradient conv threshold to 3.16228e-05
tot grids = 120648
init E= -388.54137229587
HOMO: 0.16870329796202813 LUMO: 0.18243275083565938
mo_energy:
[-2.6671 -2.6654 -1.2642 -1.2624 -1.2624 -1.2619 -1.2595 -1.2588 -0.0622
 -0.0195  0.0107  0.011   0.0356  0.063   0.0687  0.1533  0.1687  0.1824
  0.2383  0.2444  0.2455  0.2458]
e_fermi =  0.17574005390616498
[2.    2.    2.    2.    2.    2.    2.    2.    2.    2.    2.    2.
 2.    2.    2.    1.978 1.607 0.416]
entropy correction =  -0.010678095814024416
cycle= 1 E= -322.17362440626  delta_E= 66.4  |g|= 8.99  |ddm|= 9.87
HOMO: -8.861512942793091 LUMO: -8.860926953047072
mo_energy:
[-13.137 -13.134 -11.477 -11.47  -11.464 -11.463 -11.459 -11.458  -8.881
  -8.877  -8.875  -8.872  -8.868  -8.867  -8.864  -8.864  -8.862  -8.861
  -3.329  -3.313  -2.702  -2.629]
e_fermi =  -8.855295477458652
[2.    2.    2.    2.    2.    2.    2.    2.    1.988 1.977 1.963 1.925
 1.847 1.832 1.711 1.694 1.552 1.51 ]
entropy correction =  -0.028386277490269608
cycle= 2 E= -385.937795602544  delta_E= -63.8  |g|= 3.36  |ddm|= 9.95
HOMO: -1.8677593875815202 LUMO: -1.854299056534919
mo_energy:
[-5.811 -5.808 -4.366 -4.364 -4.351 -4.35  -4.348 -4.346 -1.883 -1.882
 -1.881 -1.88  -1.871 -1.87  -1.87  -1.869 -1.868 -1.854 -1.378 -1.281
 -1.027 -1.009]
e_fermi =  -1.8566703521359815
[2.    2.    2.    2.    2.    2.    2.    2.    1.989 1.987 1.984 1.981
 1.898 1.873 1.864 1.853 1.804 0.767]
entropy correction =  -0.021095622864843497
cycle= 3 E= -389.370517872291  delta_E= -3.43  |g|= 0.563  |ddm|= 3.18
HOMO: -1.2971950437354645 LUMO: -1.2949470687445133
mo_energy:
[-5.468 -5.214 -4.045 -4.01  -3.976 -3.792 -3.763 -3.732 -1.564 -1.546
 -1.542 -1.521 -1.518 -1.334 -1.317 -1.314 -1.297 -1.295 -1.147 -1.034
 -0.842 -0.834]
e_fermi =  -1.2956881432785132
[2.    2.    2.    2.    2.    2.    2.    2.    2.    2.    2.    2.
 2.    1.999 1.971 1.954 1.15  0.926]
entropy correction =  -0.015610058752412228
cycle= 4 E= -388.300565484998  delta_E= 1.07  |g|= 1.89  |ddm|= 1.69
HOMO: -1.4042746581125802 LUMO: -1.401970380605191
mo_energy:
[-5.34  -5.336 -3.913 -3.904 -3.889 -3.881 -3.866 -3.851 -1.443 -1.438
 -1.432 -1.426 -1.424 -1.416 -1.416 -1.414 -1.404 -1.402 -1.136 -1.04
 -0.839 -0.827]
e_fermi =  -1.4011637643433323
[2.    2.    2.    2.    2.    2.    2.    2.    2.    1.999 1.996 1.986
 1.979 1.904 1.901 1.854 1.301 1.08 ]
entropy correction =  -0.02110268203352432
cycle= 5 E= -388.992846160169  delta_E= -0.692  |g|= 0.972  |ddm|= 1.53
HOMO: -1.3660691939941267 LUMO: -1.3542957135341946
mo_energy:
[-5.41  -5.293 -3.981 -3.963 -3.918 -3.86  -3.846 -3.815 -1.512 -1.512
 -1.485 -1.466 -1.458 -1.399 -1.398 -1.38  -1.366 -1.354 -1.136 -1.038
 -0.838 -0.832]
e_fermi =  -1.3599358733596627
[2.    2.    2.    2.    2.    2.    2.    2.    2.    2.    2.    2.
 2.    1.999 1.999 1.966 1.546 0.489]
entropy correction =  -0.011849173402086377
cycle= 6 E= -388.496354127452  delta_E= 0.496  |g|= 1.52  |ddm|= 1.72
HOMO: -1.4005101026821318 LUMO: -1.3885430032508077
mo_energy:
[-5.393 -5.318 -3.965 -3.947 -3.903 -3.872 -3.863 -3.859 -1.497 -1.496
 -1.47  -1.451 -1.443 -1.41  -1.409 -1.402 -1.401 -1.389 -1.136 -1.04
 -0.839 -0.831]
e_fermi =  -1.392012803355266
[2.    2.    2.    2.    2.    2.    2.    2.    2.    2.    2.    2.
 2.    1.948 1.94  1.755 1.691 0.666]
entropy correction =  -0.016944936337344025
cycle= 7 E= -388.585652197391  delta_E= -0.0893  |g|= 1.43  |ddm|= 0.372
HOMO: -1.4015191140359329 LUMO: -1.3871762650260453
mo_energy:
[-5.391 -5.319 -3.961 -3.944 -3.903 -3.87  -3.868 -3.858 -1.493 -1.493
 -1.468 -1.45  -1.442 -1.411 -1.411 -1.404 -1.402 -1.387 -1.135 -1.04
 -0.839 -0.831]
e_fermi =  -1.3923022153046758
[2.    2.    2.    2.    2.    2.    2.    2.    2.    2.    2.    2.
 2.    1.955 1.953 1.838 1.727 0.528]
entropy correction =  -0.014777929251552014
cycle= 8 E= -388.582958968519  delta_E= 0.00269  |g|= 1.43  |ddm|= 0.17
HOMO: -1.407111480649208 LUMO: -1.3911465158283836
mo_energy:
[-5.387 -5.33  -3.96  -3.94  -3.894 -3.888 -3.873 -3.866 -1.492 -1.491
 -1.464 -1.443 -1.436 -1.424 -1.422 -1.417 -1.407 -1.391 -1.135 -1.041
 -0.839 -0.831]
e_fermi =  -1.3984547005056456
[2.    2.    2.    2.    2.    2.    2.    2.    2.    2.    2.    2.
 1.999 1.988 1.982 1.956 1.699 0.376]
entropy correction =  -0.01107310584936842
cycle= 9 E= -388.613538844621  delta_E= -0.0306  |g|= 1.37  |ddm|= 0.292
HOMO: -1.4164451417928354 LUMO: -1.4002912847150766
mo_energy:
[-5.392 -5.338 -3.967 -3.946 -3.897 -3.894 -3.881 -3.878 -1.498 -1.497
 -1.468 -1.446 -1.44  -1.43  -1.428 -1.426 -1.416 -1.4   -1.137 -1.043
 -0.84  -0.832]
e_fermi =  -1.4074099991020288
[2.    2.    2.    2.    2.    2.    2.    2.    2.    2.    2.    1.999
 1.997 1.979 1.966 1.953 1.718 0.388]
entropy correction =  -0.011705145317654469
cycle= 10 E= -388.647919313742  delta_E= -0.0344  |g|= 1.34  |ddm|= 0.0923
HOMO: -1.407592699251537 LUMO: -1.3918198471654188
mo_energy:
[-5.392 -5.333 -3.977 -3.947 -3.895 -3.885 -3.874 -3.868 -1.505 -1.504
 -1.467 -1.439 -1.434 -1.429 -1.426 -1.422 -1.408 -1.392 -1.136 -1.043
 -0.84  -0.833]
e_fermi =  -1.3993619940079403
[2.    2.    2.    2.    2.    2.    2.    2.    2.    2.    2.    1.999
 1.998 1.995 1.99  1.979 1.677 0.362]
entropy correction =  -0.010349722199221785
cycle= 11 E= -388.628065751214  delta_E= 0.0199  |g|= 1.36  |ddm|= 0.0745
HOMO: -1.4068151112160558 LUMO: -1.3899050203585421
mo_energy:
[-5.386 -5.331 -3.962 -3.939 -3.892 -3.891 -3.871 -3.867 -1.493 -1.492
 -1.463 -1.441 -1.434 -1.427 -1.423 -1.421 -1.407 -1.39  -1.136 -1.043
 -0.84  -0.832]
e_fermi =  -1.3979882639818841
[2.    2.    2.    2.    2.    2.    2.    2.    2.    2.    2.    2.
 1.998 1.994 1.988 1.981 1.708 0.331]
entropy correction =  -0.00984199276497523
cycle= 12 E= -388.61690986426  delta_E= 0.0112  |g|= 1.37  |ddm|= 0.069
HOMO: -1.4060341277307624 LUMO: -1.390844927783485
mo_energy:
[-5.379 -5.33  -3.954 -3.933 -3.89  -3.886 -3.876 -3.862 -1.486 -1.485
 -1.457 -1.436 -1.429 -1.427 -1.425 -1.417 -1.406 -1.391 -1.136 -1.042
 -0.84  -0.831]
e_fermi =  -1.3978970026252437
[2.    2.    2.    2.    2.    2.    2.    2.    2.    2.    2.    1.999
 1.996 1.994 1.992 1.955 1.672 0.392]
entropy correction =  -0.011141172537477508
cycle= 13 E= -388.655090960504  delta_E= -0.0382  |g|= 1.34  |ddm|= 0.153
HOMO: -0.9056634133811582 LUMO: -0.8332108309235643
mo_energy:
[-6.054 -4.627 -4.605 -4.527 -4.521 -3.105 -3.093 -3.076 -2.121 -2.116
 -2.067 -2.055 -2.039 -1.287 -0.988 -0.928 -0.906 -0.833 -0.765 -0.757
 -0.754 -0.739]
e_fermi =  -0.8694094198319265
[2.000e+00 2.000e+00 2.000e+00 2.000e+00 2.000e+00 2.000e+00 2.000e+00
 2.000e+00 2.000e+00 2.000e+00 2.000e+00 2.000e+00 2.000e+00 2.000e+00
 2.000e+00 2.000e+00 1.999e+00 1.434e-03]
entropy correction =  -0.0001185973498719276
cycle= 14 E= -347.720404436085  delta_E= 40.9  |g|= 15.1  |ddm|=  6.2
HOMO: -1.163411359044162 LUMO: -1.163012992819655
mo_energy:
[-5.897 -5.05  -4.476 -4.437 -4.377 -3.615 -3.602 -3.59  -1.967 -1.96
 -1.925 -1.902 -1.893 -1.225 -1.177 -1.172 -1.163 -1.163 -1.162 -1.022
 -0.879 -0.869]
e_fermi =  -1.164458772425486
[2.    2.    2.    2.    2.    2.    2.    2.    2.    2.    2.    2.
 2.    2.    1.845 1.656 0.896 0.856 0.746]
entropy correction =  -0.027624263142563287
cycle= 15 E= -382.672343461564  delta_E=  -35  |g|= 4.64  |ddm|= 4.61
HOMO: -1.4196702264692087 LUMO: -1.407219714969875
mo_energy:
[-5.547 -5.339 -4.111 -4.09  -4.063 -3.893 -3.885 -3.878 -1.627 -1.625
 -1.603 -1.595 -1.588 -1.43  -1.43  -1.422 -1.42  -1.407 -1.154 -1.057
 -0.857 -0.842]
e_fermi =  -1.4111978561129708
[2.    2.    2.    2.    2.    2.    2.    2.    2.    2.    2.    2.
 2.    1.957 1.953 1.778 1.69  0.622]
entropy correction =  -0.0161418995101584
cycle= 16 E= -388.376003401044  delta_E= -5.7  |g|= 1.68  |ddm|= 2.45
HOMO: -1.3890967352959727 LUMO: -1.3852429650844644
mo_energy:
[-5.355 -5.315 -3.954 -3.908 -3.886 -3.864 -3.84  -3.834 -1.479 -1.462
 -1.438 -1.421 -1.411 -1.403 -1.402 -1.4   -1.389 -1.385 -1.137 -1.04
 -0.842 -0.834]
e_fermi =  -1.385760658999845
[2.    2.    2.    2.    2.    2.    2.    2.    2.    2.    2.    1.998
 1.986 1.94  1.923 1.883 1.322 0.948]
entropy correction =  -0.019025756255431413
cycle= 17 E= -388.701879085594  delta_E= -0.326  |g|= 1.27  |ddm|= 1.58
HOMO: -1.381949077531255 LUMO: -1.3679308773852215
mo_energy:
[-5.387 -5.313 -3.962 -3.935 -3.899 -3.893 -3.879 -3.806 -1.49  -1.489
 -1.467 -1.446 -1.437 -1.435 -1.411 -1.391 -1.382 -1.368 -1.137 -1.041
 -0.84  -0.832]
e_fermi =  -1.3743768937091922
[2.    2.    2.    2.    2.    2.    2.    2.    2.    2.    2.    2.
 2.    2.    1.999 1.93  1.639 0.432]
entropy correction =  -0.011508317529350158
cycle= 18 E= -388.473520713052  delta_E= 0.228  |g|=  1.5  |ddm|= 1.78
HOMO: -1.4085180311750922 LUMO: -1.39002167837932
mo_energy:
[-5.359 -5.335 -3.935 -3.909 -3.898 -3.883 -3.871 -3.862 -1.466 -1.465
 -1.442 -1.434 -1.432 -1.421 -1.421 -1.412 -1.409 -1.39  -1.134 -1.041
 -0.839 -0.83 ]
e_fermi =  -1.397760212880606
[2.    2.    2.    2.    2.    2.    2.    2.    2.    2.    2.    1.999
 1.998 1.983 1.981 1.897 1.792 0.351]
entropy correction =  -0.011192424380698087
cycle= 19 E= -389.04198985841  delta_E= -0.568  |g|= 0.938  |ddm|= 2.05
HOMO: -1.4063251947770752 LUMO: -1.3869899832285195
mo_energy:
[-5.353 -5.332 -3.931 -3.903 -3.896 -3.87  -3.868 -3.862 -1.462 -1.461
 -1.437 -1.428 -1.426 -1.424 -1.414 -1.407 -1.406 -1.387 -1.133 -1.041
 -0.838 -0.83 ]
e_fermi =  -1.3945049680260084
[2.    2.    2.    2.    2.    2.    2.    2.    2.    2.    2.    1.997
 1.996 1.995 1.96  1.859 1.828 0.364]
entropy correction =  -0.011623133187383852
cycle= 20 E= -389.212114681799  delta_E= -0.17  |g|=  0.7  |ddm|= 0.236
HOMO: -1.4107485296490225 LUMO: -1.400237350334771
mo_energy:
[-5.347 -5.335 -3.901 -3.899 -3.891 -3.888 -3.875 -3.869 -1.438 -1.437
 -1.432 -1.429 -1.429 -1.428 -1.423 -1.416 -1.411 -1.4   -1.135 -1.041
 -0.84  -0.831]
e_fermi =  -1.403899063456135
[2.    2.    2.    2.    2.    2.    2.    2.    1.998 1.997 1.993 1.988
 1.986 1.983 1.961 1.851 1.595 0.649]
entropy correction =  -0.01667213426129027
cycle= 21 E= -388.973885412963  delta_E= 0.238  |g|= 1.02  |ddm|= 0.854
HOMO: -1.4174917427577156 LUMO: -1.407573314372999
mo_energy:
[-5.345 -5.344 -3.903 -3.899 -3.899 -3.894 -3.88  -3.869 -1.442 -1.439
 -1.437 -1.431 -1.429 -1.425 -1.425 -1.423 -1.417 -1.408 -1.136 -1.042
 -0.841 -0.831]
e_fermi =  -1.4099669510270003
[2.    2.    2.    2.    2.    2.    2.    2.    1.996 1.993 1.992 1.968
 1.958 1.913 1.913 1.864 1.637 0.765]
entropy correction =  -0.019901957885606003
cycle= 22 E= -389.392845113677  delta_E= -0.419  |g|= 0.287  |ddm|=    1
HOMO: -1.4220077732429055 LUMO: -1.4095870741085659
mo_energy:
[-5.35  -5.345 -3.904 -3.903 -3.897 -3.893 -3.887 -3.877 -1.442 -1.441
 -1.438 -1.436 -1.431 -1.43  -1.429 -1.424 -1.422 -1.41  -1.136 -1.042
 -0.841 -0.832]
e_fermi =  -1.4127259472228004
[2.    2.    2.    2.    2.    2.    2.    2.    1.994 1.994 1.988 1.98
 1.949 1.933 1.92  1.816 1.73  0.696]
entropy correction =  -0.01916272007475377
cycle= 23 E= -389.42445542248  delta_E= -0.0316  |g|= 0.126  |ddm|= 1.08
HOMO: -1.4201377231891044 LUMO: -1.4159355540025333
mo_energy:
[-5.35  -5.342 -3.905 -3.902 -3.901 -3.894 -3.881 -3.871 -1.444 -1.438
 -1.434 -1.432 -1.431 -1.427 -1.426 -1.422 -1.42  -1.416 -1.137 -1.042
 -0.842 -0.832]
e_fermi =  -1.4137292764637903
[2.    2.    2.    2.    2.    2.    2.    2.    1.995 1.986 1.968 1.953
 1.939 1.871 1.847 1.658 1.565 1.217]
entropy correction =  -0.025472100582721695
cycle= 24 E= -389.204596932106  delta_E= 0.22  |g|= 0.731  |ddm|= 0.918
HOMO: -1.4207150031173859 LUMO: -1.4157370990081912
mo_energy:
[-5.348 -5.342 -3.904 -3.901 -3.9   -3.893 -3.876 -3.873 -1.443 -1.437
 -1.434 -1.43  -1.428 -1.427 -1.424 -1.423 -1.421 -1.416 -1.137 -1.042
 -0.841 -0.832]
e_fermi =  -1.4133547251174279
[2.    2.    2.    2.    2.    2.    2.    2.    1.995 1.984 1.965 1.93
 1.899 1.869 1.774 1.724 1.627 1.234]
entropy correction =  -0.0264748913497232
cycle= 25 E= -389.338224339932  delta_E= -0.134  |g|= 0.484  |ddm|= 0.169
HOMO: -1.421738768242771 LUMO: -1.4148797264905886
mo_energy:
[-5.347 -5.342 -3.902 -3.9   -3.896 -3.894 -3.878 -3.876 -1.442 -1.435
 -1.432 -1.43  -1.429 -1.426 -1.425 -1.425 -1.422 -1.415 -1.136 -1.042
 -0.841 -0.832]
e_fermi =  -1.4137124876788791
[2.    2.    2.    2.    2.    2.    2.    2.    1.993 1.974 1.948 1.932
 1.905 1.837 1.819 1.811 1.666 1.116]
entropy correction =  -0.025905778142244207
cycle= 26 E= -389.353803906963  delta_E= -0.0156  |g|= 0.459  |ddm|= 0.269
HOMO: -1.4218288990155985 LUMO: -1.4135033985386753
mo_energy:
[-5.347 -5.341 -3.904 -3.9   -3.898 -3.889 -3.876 -3.876 -1.443 -1.434
 -1.433 -1.43  -1.428 -1.427 -1.423 -1.423 -1.422 -1.414 -1.136 -1.042
 -0.841 -0.832]
e_fermi =  -1.4127244900444476
[2.    2.    2.    2.    2.    2.    2.    2.    1.995 1.972 1.963 1.935
 1.902 1.896 1.785 1.753 1.721 1.078]
entropy correction =  -0.025350812833831015
cycle= 27 E= -389.330051030727  delta_E= 0.0238  |g|= 0.505  |ddm|= 0.259
HOMO: -1.4227642790325588 LUMO: -1.4127141679402628
mo_energy:
[-5.346 -5.342 -3.901 -3.898 -3.898 -3.889 -3.877 -3.877 -1.44  -1.434
 -1.431 -1.429 -1.428 -1.427 -1.424 -1.423 -1.423 -1.413 -1.136 -1.042
 -0.841 -0.832]
e_fermi =  -1.41263760394466
[2.    2.    2.    2.    2.    2.    2.    2.    1.992 1.971 1.949 1.93
 1.914 1.893 1.804 1.773 1.767 1.008]
entropy correction =  -0.024867020121624485
cycle= 28 E= -389.373618341351  delta_E= -0.0436  |g|= 0.396  |ddm|= 0.134
HOMO: -1.4236530721156562 LUMO: -1.4128389658511158
mo_energy:
[-5.345 -5.342 -3.9   -3.898 -3.893 -3.893 -3.879 -3.877 -1.44  -1.433
 -1.43  -1.429 -1.427 -1.427 -1.426 -1.424 -1.424 -1.413 -1.136 -1.042
 -0.841 -0.832]
e_fermi =  -1.4130705585933974
[2.    2.    2.    2.    2.    2.    2.    2.    1.99  1.966 1.932 1.919
 1.887 1.881 1.863 1.801 1.785 0.977]
entropy correction =  -0.024878644709036994
cycle= 29 E= -389.407541627521  delta_E= -0.0339  |g|= 0.294  |ddm|= 0.285
HOMO: -1.4239196533239353 LUMO: -1.414068255808075
mo_energy:
[-5.346 -5.343 -3.901 -3.898 -3.896 -3.894 -3.879 -3.878 -1.44  -1.435
 -1.431 -1.429 -1.428 -1.427 -1.427 -1.424 -1.424 -1.414 -1.136 -1.042
 -0.841 -0.832]
e_fermi =  -1.4137852694511883
[2.    2.    2.    2.    2.    2.    2.    2.    1.989 1.971 1.933 1.913
 1.883 1.874 1.858 1.784 1.767 1.028]
entropy correction =  -0.025445716200153592
cycle= 30 E= -389.421232613814  delta_E= -0.0137  |g|= 0.235  |ddm|= 0.105
HOMO: -1.4237751533310559 LUMO: -1.4143010218828131
mo_energy:
[-5.346 -5.344 -3.899 -3.897 -3.897 -3.895 -3.881 -3.878 -1.439 -1.436
 -1.43  -1.43  -1.429 -1.428 -1.426 -1.426 -1.424 -1.414 -1.136 -1.042
 -0.841 -0.832]
e_fermi =  -1.4142538382919339
[2.    2.    2.    2.    2.    2.    2.    2.    1.985 1.975 1.924 1.922
 1.898 1.881 1.837 1.833 1.741 1.005]
entropy correction =  -0.025142866052348382
cycle= 31 E= -389.4213163392  delta_E= -8.37e-05  |g|= 0.236  |ddm|= 0.164
HOMO: -1.424069037431182 LUMO: -1.4122364576912796
mo_energy:
[-5.345 -5.343 -3.897 -3.897 -3.895 -3.891 -3.881 -3.88  -1.436 -1.434
 -1.429 -1.429 -1.428 -1.428 -1.426 -1.425 -1.424 -1.412 -1.136 -1.042
 -0.841 -0.832]
e_fermi =  -1.4131584987469437
[2.    2.    2.    2.    2.    2.    2.    2.    1.981 1.97  1.925 1.919
 1.91  1.902 1.859 1.83  1.797 0.908]
entropy correction =  -0.024052855254950503
cycle= 32 E= -389.426588544563  delta_E= -0.00527  |g|= 0.207  |ddm|= 0.145
HOMO: -1.4242852416944611 LUMO: -1.413090147423287
mo_energy:
[-5.345 -5.343 -3.898 -3.896 -3.896 -3.893 -3.88  -3.879 -1.437 -1.435
 -1.429 -1.429 -1.428 -1.428 -1.426 -1.425 -1.424 -1.413 -1.136 -1.042
 -0.841 -0.832]
e_fermi =  -1.413549043014947
[2.    2.    2.    2.    2.    2.    2.    2.    1.982 1.971 1.916 1.914
 1.9   1.892 1.85  1.83  1.791 0.954]
entropy correction =  -0.02471502672408676
cycle= 33 E= -389.434457907888  delta_E= -0.00787  |g|= 0.16  |ddm|= 0.0781
HOMO: -1.4246084405545345 LUMO: -1.4145472280325095
mo_energy:
[-5.345 -5.344 -3.898 -3.898 -3.896 -3.896 -3.879 -3.879 -1.438 -1.437
 -1.43  -1.429 -1.429 -1.428 -1.427 -1.425 -1.425 -1.415 -1.136 -1.042
 -0.841 -0.832]
e_fermi =  -1.4143067697383176
[2.    2.    2.    2.    2.    2.    2.    2.    1.982 1.977 1.923 1.902
 1.9   1.869 1.855 1.793 1.774 1.024]
entropy correction =  -0.025499360768456124
cycle= 34 E= -389.445107030241  delta_E= -0.0106  |g|= 0.0321  |ddm|= 0.121
HOMO: -1.4252796121712605 LUMO: -1.4143966605068545
mo_energy:
[-5.346 -5.345 -3.899 -3.898 -3.896 -3.896 -3.881 -3.88  -1.438 -1.436
 -1.431 -1.43  -1.429 -1.429 -1.428 -1.426 -1.425 -1.414 -1.136 -1.042
 -0.841 -0.832]
e_fermi =  -1.414672015938182
[2.    2.    2.    2.    2.    2.    2.    2.    1.981 1.975 1.919 1.906
 1.895 1.882 1.863 1.821 1.786 0.972]
entropy correction =  -0.024953133636480298
cycle= 35 E= -389.443315620775  delta_E= 0.00179  |g|= 0.0717  |ddm|= 0.133
HOMO: -1.4248830997020732 LUMO: -1.414457237718105
mo_energy:
[-5.345 -5.344 -3.898 -3.898 -3.897 -3.896 -3.88  -3.879 -1.438 -1.436
 -1.43  -1.429 -1.429 -1.428 -1.428 -1.425 -1.425 -1.414 -1.136 -1.042
 -0.841 -0.832]
e_fermi =  -1.4144048657796133
[2.    2.    2.    2.    2.    2.    2.    2.    1.982 1.976 1.919 1.899
 1.893 1.879 1.864 1.801 1.781 1.005]
entropy correction =  -0.025329718163030934
cycle= 36 E= -389.444792197184  delta_E= -0.00148  |g|= 0.0469  |ddm|= 0.0654
HOMO: -1.424991943017287 LUMO: -1.4145996747088245
mo_energy:
[-5.346 -5.345 -3.898 -3.898 -3.897 -3.896 -3.88  -3.88  -1.438 -1.437
 -1.43  -1.429 -1.429 -1.428 -1.428 -1.425 -1.425 -1.415 -1.136 -1.042
 -0.841 -0.832]
e_fermi =  -1.4145009208596262
[2.    2.    2.    2.    2.    2.    2.    2.    1.982 1.977 1.92  1.898
 1.895 1.876 1.866 1.797 1.781 1.01 ]
entropy correction =  -0.025377689384111425
cycle= 37 E= -389.445644799861  delta_E= -0.000853  |g|= 0.0144  |ddm|= 0.0214
HOMO: -1.4250014365402024 LUMO: -1.414563200805477
mo_energy:
[-5.346 -5.345 -3.898 -3.898 -3.897 -3.896 -3.88  -3.879 -1.438 -1.437
 -1.43  -1.429 -1.429 -1.428 -1.428 -1.425 -1.425 -1.415 -1.136 -1.042
 -0.841 -0.832]
e_fermi =  -1.4144985338459906
[2.    2.    2.    2.    2.    2.    2.    2.    1.982 1.977 1.919 1.898
 1.894 1.877 1.866 1.799 1.782 1.006]
entropy correction =  -0.02534285058562246
cycle= 38 E= -389.445706222151  delta_E= -6.14e-05  |g|= 0.00829  |ddm|= 0.0223
HOMO: -1.4249782964625473 LUMO: -1.4144935635526266
mo_energy:
[-5.345 -5.345 -3.898 -3.898 -3.896 -3.896 -3.88  -3.88  -1.438 -1.437
 -1.43  -1.429 -1.429 -1.428 -1.428 -1.425 -1.425 -1.414 -1.136 -1.042
 -0.841 -0.832]
e_fermi =  -1.4144401614482038
[2.    2.    2.    2.    2.    2.    2.    2.    1.981 1.976 1.919 1.897
 1.896 1.877 1.866 1.798 1.783 1.005]
entropy correction =  -0.02533305088138894
cycle= 39 E= -389.445736211094  delta_E= -3e-05  |g|= 0.00354  |ddm|= 0.0145
HOMO: -1.4249335378599963 LUMO: -1.4144640121475047
mo_energy:
[-5.345 -5.344 -3.898 -3.898 -3.896 -3.896 -3.88  -3.88  -1.438 -1.437
 -1.43  -1.429 -1.429 -1.428 -1.428 -1.425 -1.425 -1.414 -1.136 -1.042
 -0.841 -0.832]
e_fermi =  -1.414400904228461
[2.    2.    2.    2.    2.    2.    2.    2.    1.982 1.977 1.919 1.897
 1.897 1.876 1.866 1.798 1.783 1.006]
entropy correction =  -0.025342081185221
cycle= 40 E= -389.445739985766  delta_E= -3.77e-06  |g|= 0.00228  |ddm|= 0.00636
HOMO: -1.4249688463088876 LUMO: -1.4144764020424136
mo_energy:
[-5.345 -5.344 -3.898 -3.898 -3.896 -3.896 -3.88  -3.88  -1.438 -1.437
 -1.43  -1.429 -1.429 -1.428 -1.428 -1.425 -1.425 -1.414 -1.136 -1.042
 -0.841 -0.832]
e_fermi =  -1.4144243198761708
[2.    2.    2.    2.    2.    2.    2.    2.    1.981 1.976 1.919 1.897
 1.897 1.876 1.866 1.798 1.784 1.005]
entropy correction =  -0.025331144749193336
cycle= 41 E= -389.445739455673  delta_E= 5.3e-07  |g|= 0.00267  |ddm|= 0.00371
HOMO: -1.4249667017692962 LUMO: -1.4144910958351162
mo_energy:
[-5.345 -5.344 -3.898 -3.898 -3.896 -3.896 -3.88  -3.88  -1.438 -1.437
 -1.43  -1.429 -1.429 -1.428 -1.428 -1.425 -1.425 -1.414 -1.136 -1.042
 -0.841 -0.832]
e_fermi =  -1.4144305602656078
[2.    2.    2.    2.    2.    2.    2.    2.    1.982 1.976 1.919 1.897
 1.897 1.876 1.866 1.798 1.783 1.006]
entropy correction =  -0.02533998392826724
cycle= 42 E= -389.445742564729  delta_E= -3.11e-06  |g|= 0.000278  |ddm|= 0.00164
HOMO: -1.4249658255898565 LUMO: -1.4144871124571108
mo_energy:
[-5.345 -5.344 -3.898 -3.898 -3.896 -3.896 -3.88  -3.88  -1.438 -1.437
 -1.43  -1.429 -1.429 -1.428 -1.428 -1.425 -1.425 -1.414 -1.136 -1.042
 -0.841 -0.832]
e_fermi =  -1.414428083942017
[2.    2.    2.    2.    2.    2.    2.    2.    1.982 1.976 1.919 1.897
 1.897 1.876 1.866 1.798 1.783 1.006]
entropy correction =  -0.025338449612587147
cycle= 43 E= -389.445742548891  delta_E= 1.58e-08  |g|= 0.000314  |ddm|= 0.000529
HOMO: -1.4249618475057573 LUMO: -1.4144888819262558
mo_energy:
[-5.345 -5.344 -3.898 -3.898 -3.896 -3.896 -3.88  -3.88  -1.438 -1.437
 -1.43  -1.429 -1.429 -1.428 -1.428 -1.425 -1.425 -1.414 -1.136 -1.042
 -0.841 -0.832]
e_fermi =  -1.414427077074794
[2.    2.    2.    2.    2.    2.    2.    2.    1.982 1.977 1.919 1.897
 1.897 1.876 1.866 1.798 1.783 1.006]
entropy correction =  -0.025341359660081282
cycle= 44 E= -389.445742595386  delta_E= -4.65e-08  |g|= 7.12e-05  |ddm|= 0.000547
HOMO: -1.424965928449606 LUMO: -1.4144836401290564
mo_energy:
[-5.345 -5.344 -3.898 -3.898 -3.896 -3.896 -3.88  -3.88  -1.438 -1.437
 -1.43  -1.429 -1.429 -1.428 -1.428 -1.425 -1.425 -1.414 -1.136 -1.042
 -0.841 -0.832]
e_fermi =  -1.4144263411899882
[2.    2.    2.    2.    2.    2.    2.    2.    1.982 1.976 1.919 1.897
 1.897 1.876 1.866 1.798 1.783 1.006]
entropy correction =  -0.02533666833658201
cycle= 45 E= -389.445742592326  delta_E= 3.06e-09  |g|= 7.29e-05  |ddm|= 0.000521
HOMO: -1.4249642621094387 LUMO: -1.4144885925820365
mo_energy:
[-5.345 -5.344 -3.898 -3.898 -3.896 -3.896 -3.88  -3.88  -1.438 -1.437
 -1.43  -1.429 -1.429 -1.428 -1.428 -1.425 -1.425 -1.414 -1.136 -1.042
 -0.841 -0.832]
e_fermi =  -1.4144280862009209
[2.    2.    2.    2.    2.    2.    2.    2.    1.982 1.976 1.919 1.897
 1.897 1.876 1.866 1.798 1.783 1.006]
entropy correction =  -0.025340001306172717
cycle= 46 E= -389.44574259816  delta_E= -5.83e-09  |g|= 4.83e-05  |ddm|= 0.000379
HOMO: -1.4249644545740847 LUMO: -1.414487898925142
mo_energy:
[-5.345 -5.344 -3.898 -3.898 -3.896 -3.896 -3.88  -3.88  -1.438 -1.437
 -1.43  -1.429 -1.429 -1.428 -1.428 -1.425 -1.425 -1.414 -1.136 -1.042
 -0.841 -0.832]
e_fermi =  -1.4144278363543359
[2.    2.    2.    2.    2.    2.    2.    2.    1.982 1.976 1.919 1.897
 1.897 1.876 1.866 1.798 1.783 1.006]
entropy correction =  -0.025339528433796624
cycle= 47 E= -389.445742599506  delta_E= -1.35e-09  |g|= 8.82e-06  |ddm|= 0.000133
HOMO: -1.424964377786505 LUMO: -1.4144880536344455
mo_energy:
[-5.345 -5.344 -3.898 -3.898 -3.896 -3.896 -3.88  -3.88  -1.438 -1.437
 -1.43  -1.429 -1.429 -1.428 -1.428 -1.425 -1.425 -1.414 -1.136 -1.042
 -0.841 -0.832]
e_fermi =  -1.4144278743746679
[2.    2.    2.    2.    2.    2.    2.    2.    1.982 1.976 1.919 1.897
 1.897 1.876 1.866 1.798 1.783 1.006]
entropy correction =  -0.025339660129413605
cycle= 48 E= -389.445742599222  delta_E= 2.84e-10  |g|= 3.24e-05  |ddm|= 6.28e-05
HOMO: -1.4249645832959097 LUMO: -1.4144882566211
mo_energy:
[-5.345 -5.344 -3.898 -3.898 -3.896 -3.896 -3.88  -3.88  -1.438 -1.437
 -1.43  -1.429 -1.429 -1.428 -1.428 -1.425 -1.425 -1.414 -1.136 -1.042
 -0.841 -0.832]
e_fermi =  -1.4144280767202047
[2.    2.    2.    2.    2.    2.    2.    2.    1.982 1.976 1.919 1.897
 1.897 1.876 1.866 1.798 1.783 1.006]
entropy correction =  -0.02533965938661055
cycle= 49 E= -389.445742599695  delta_E= -4.73e-10  |g|= 3.06e-06  |ddm|= 3e-05
HOMO: -1.4249642198598023 LUMO: -1.414488132491332
mo_energy:
[-5.345 -5.344 -3.898 -3.898 -3.896 -3.896 -3.88  -3.88  -1.438 -1.437
 -1.43  -1.429 -1.429 -1.428 -1.428 -1.425 -1.425 -1.414 -1.136 -1.042
 -0.841 -0.832]
e_fermi =  -1.4144278524227405
[2.    2.    2.    2.    2.    2.    2.    2.    1.982 1.976 1.919 1.897
 1.897 1.876 1.866 1.798 1.783 1.006]
entropy correction =  -0.025339760335448373
Extra cycle  E= -389.445742550397  delta_E= 4.93e-08  |g|= 0.000339  |ddm|= 0.000158
converged SCF energy = -389.445742550397


******** <class 'pydmfet.dfet_ao.scf.EmbedSCF'> flags ********
method = EmbedSCF-RKS-RHF
initial guess = minao
damping factor = 0
level shift factor = 0
DIIS = <class 'pyscf.scf.diis.CDIIS'>
DIIS start cycle = 1
DIIS space = 8
SCF tol = 1e-09
SCF gradient tol = None
max. SCF cycles = 200
direct_scf = False
chkfile to save SCF result = /tmp/tmpwhsrxod9
max_memory 16000 MB (current use 1547 MB)
XC functionals = pbe,pbe
small_rho_cutoff = 1e-07
radial grids: 
    Treutler-Ahlrichs (JCP 102, 346 (M4)) radial grids
    
becke partition: Becke, JCP, 88, 2547 (1988)
pruning grids: <function nwchem_prune at 0x2b0eb01d7400>
grids dens level: 3
symmetrized grids: False
atomic radii adjust function: <function treutler_atomic_radii_adjust at 0x2b0eb01d7378>
Set gradient conv threshold to 3.16228e-05
tot grids = 139880
init E= -78.8821403612908
HOMO: 0.09186461775986653 LUMO: 0.10315206872062382
mo_energy:
[-0.321 -0.306 -0.299 -0.294 -0.288 -0.269 -0.022 -0.017 -0.009  0.002
  0.004  0.016  0.018  0.024  0.041  0.042  0.043  0.051  0.054  0.064
  0.073  0.077  0.084  0.092  0.103  0.147  0.172  0.173  0.183]
e_fermi =  0.09848878707064466
[2.    2.    2.    2.    2.    2.    2.    2.    2.    2.    2.    2.
 2.    2.    2.    2.    2.    2.    2.    1.998 1.989 1.972 1.897 1.58
 0.565]
entropy correction =  -0.01432406295695708
cycle= 1 E= -86.0930873919688  delta_E= -7.21  |g|=  2.5  |ddm|= 11.7
HOMO: 0.4932095341477303 LUMO: 0.7195705887932623
mo_energy:
[-0.131 -0.128 -0.127 -0.127  0.024  0.03   0.318  0.318  0.323  0.33
  0.331  0.332  0.333  0.333  0.345  0.347  0.356  0.358  0.479  0.481
  0.482  0.488  0.492  0.493  0.72   0.725  0.728  0.738  0.756]
e_fermi =  0.6075283818039803
[2. 2. 2. 2. 2. 2. 2. 2. 2. 2. 2. 2. 2. 2. 2. 2. 2. 2. 2. 2. 2. 2. 2. 2.]
entropy correction =  0.0
cycle= 2 E= -86.8203396283918  delta_E= -0.727  |g|= 2.04  |ddm|= 8.59
HOMO: 0.7810843136909739 LUMO: 0.7830259124809862
mo_energy:
[0.217 0.219 0.223 0.224 0.363 0.372 0.619 0.62  0.62  0.622 0.636 0.637
 0.642 0.642 0.645 0.648 0.665 0.668 0.743 0.762 0.768 0.774 0.78  0.781
 0.783 0.784 0.789 0.792 0.804]
e_fermi =  0.7816521750322221
[2.    2.    2.    2.    2.    2.    2.    2.    2.    2.    2.    2.
 2.    2.    2.    2.    2.    2.    1.999 1.961 1.885 1.657 1.167 1.057
 0.863 0.727 0.401 0.24  0.025 0.018]
entropy correction =  -0.04473338217581933
cycle= 3 E= -85.9947791817365  delta_E= 0.826  |g|= 1.56  |ddm|= 6.65
HOMO: 0.6995662852422563 LUMO: 0.748509978414297
mo_energy:
[0.213 0.214 0.219 0.22  0.263 0.272 0.61  0.611 0.612 0.615 0.628 0.629
 0.63  0.63  0.635 0.636 0.654 0.658 0.67  0.672 0.689 0.691 0.694 0.7
 0.749 0.753 0.756 0.779 0.78 ]
e_fermi =  0.7239733684439854
[2.    2.    2.    2.    2.    2.    2.    2.    2.    2.    2.    2.
 2.    2.    2.    2.    2.    2.    2.    2.    1.998 1.997 1.995 1.985
 0.015 0.006 0.003]
entropy correction =  -0.0015383935883360106
cycle= 4 E= -88.189273598098  delta_E= -2.19  |g|= 0.186  |ddm|=  6.2
HOMO: 0.6998961189333357 LUMO: 0.7312480702011824
mo_energy:
[0.202 0.204 0.209 0.21  0.263 0.273 0.601 0.604 0.605 0.605 0.617 0.62
 0.62  0.623 0.625 0.628 0.643 0.647 0.663 0.666 0.683 0.69  0.69  0.7
 0.731 0.74  0.749 0.766 0.774]
e_fermi =  0.7158030510135345
[2.    2.    2.    2.    2.    2.    2.    2.    2.    2.    2.    2.
 2.    2.    2.    2.    2.    2.    2.    2.    1.997 1.989 1.989 1.92
 0.087 0.015 0.002]
entropy correction =  -0.004796466859311816
cycle= 5 E= -88.2040353039288  delta_E= -0.0148  |g|= 0.104  |ddm|= 0.244
HOMO: 0.7142989360877539 LUMO: 0.7328036090959641
mo_energy:
[0.214 0.216 0.221 0.222 0.277 0.286 0.61  0.615 0.616 0.616 0.629 0.63
 0.631 0.635 0.637 0.64  0.655 0.659 0.676 0.682 0.696 0.704 0.705 0.714
 0.733 0.744 0.754 0.766 0.777]
e_fermi =  0.7240229393643726
[2.    2.    2.    2.    2.    2.    2.    2.    2.    2.    2.    2.
 2.    2.    2.    2.    2.    2.    2.    2.    1.992 1.962 1.959 1.75
 0.295 0.038 0.005]
entropy correction =  -0.011340728184683804
cycle= 6 E= -88.2130675658064  delta_E= -0.00903  |g|= 0.0113  |ddm|= 0.335
HOMO: 0.7094780873511227 LUMO: 0.729025804125461
mo_energy:
[0.21  0.212 0.217 0.218 0.273 0.283 0.607 0.611 0.612 0.612 0.625 0.627
 0.627 0.63  0.633 0.636 0.651 0.655 0.673 0.678 0.694 0.7   0.701 0.709
 0.729 0.741 0.751 0.762 0.775]
e_fermi =  0.7198842815422218
[2.    2.    2.    2.    2.    2.    2.    2.    2.    2.    2.    2.
 2.    2.    2.    2.    2.    2.    2.    2.    1.989 1.965 1.959 1.778
 0.277 0.029 0.004]
entropy correction =  -0.01069215976858443
cycle= 7 E= -88.213195533669  delta_E= -0.000128  |g|= 0.00209  |ddm|= 0.0535
HOMO: 0.7096404996434758 LUMO: 0.7288667083281033
mo_energy:
[0.21  0.212 0.217 0.218 0.273 0.283 0.607 0.611 0.612 0.612 0.625 0.627
 0.627 0.63  0.633 0.636 0.651 0.655 0.673 0.678 0.694 0.7   0.701 0.71
 0.729 0.741 0.751 0.762 0.775]
e_fermi =  0.7198698571339041
[2.    2.    2.    2.    2.    2.    2.    2.    2.    2.    2.    2.
 2.    2.    2.    2.    2.    2.    2.    2.    1.989 1.964 1.959 1.771
 0.284 0.03  0.004]
entropy correction =  -0.010839966294582299
cycle= 8 E= -88.213135792911  delta_E= 5.97e-05  |g|= 0.00898  |ddm|= 0.0175
HOMO: 0.7096354538578321 LUMO: 0.7288265000918535
mo_energy:
[0.21  0.212 0.217 0.218 0.273 0.283 0.607 0.611 0.612 0.612 0.625 0.627
 0.627 0.63  0.633 0.636 0.651 0.655 0.673 0.678 0.694 0.7   0.701 0.71
 0.729 0.741 0.751 0.762 0.775]
e_fermi =  0.7198487888975984
[2.    2.    2.    2.    2.    2.    2.    2.    2.    2.    2.    2.
 2.    2.    2.    2.    2.    2.    2.    2.    1.989 1.963 1.959 1.77
 0.285 0.03  0.004]
entropy correction =  -0.010859349511071852
cycle= 9 E= -88.2131984926633  delta_E= -6.27e-05  |g|= 0.00109  |ddm|= 0.0131
HOMO: 0.7095123117178999 LUMO: 0.7287874267526518
mo_energy:
[0.21  0.212 0.217 0.218 0.273 0.283 0.607 0.611 0.612 0.612 0.625 0.627
 0.627 0.63  0.633 0.636 0.651 0.655 0.673 0.678 0.694 0.7   0.7   0.71
 0.729 0.741 0.751 0.762 0.775]
e_fermi =  0.7197727264465976
[2.    2.    2.    2.    2.    2.    2.    2.    2.    2.    2.    2.
 2.    2.    2.    2.    2.    2.    2.    2.    1.989 1.964 1.959 1.772
 0.283 0.029 0.004]
entropy correction =  -0.010812009678507291
cycle= 10 E= -88.2131994777922  delta_E= -9.85e-07  |g|= 0.000304  |ddm|= 0.00275
HOMO: 0.7094731893746047 LUMO: 0.728772559116337
mo_energy:
[0.21  0.212 0.217 0.218 0.273 0.283 0.607 0.611 0.612 0.612 0.625 0.627
 0.627 0.63  0.633 0.636 0.651 0.655 0.673 0.678 0.694 0.7   0.7   0.709
 0.729 0.741 0.751 0.762 0.774]
e_fermi =  0.7197471374203691
[2.    2.    2.    2.    2.    2.    2.    2.    2.    2.    2.    2.
 2.    2.    2.    2.    2.    2.    2.    2.    1.989 1.964 1.959 1.773
 0.282 0.029 0.004]
entropy correction =  -0.01079775797464257
cycle= 11 E= -88.2131995455085  delta_E= -6.77e-08  |g|= 3.61e-05  |ddm|= 0.000837
HOMO: 0.7094738777662445 LUMO: 0.7287691452395738
mo_energy:
[0.21  0.212 0.217 0.218 0.273 0.283 0.607 0.611 0.612 0.612 0.625 0.627
 0.627 0.63  0.633 0.636 0.651 0.655 0.673 0.678 0.694 0.7   0.7   0.709
 0.729 0.741 0.751 0.762 0.774]
e_fermi =  0.7197454162904591
[2.    2.    2.    2.    2.    2.    2.    2.    2.    2.    2.    2.
 2.    2.    2.    2.    2.    2.    2.    2.    1.989 1.964 1.959 1.773
 0.283 0.029 0.004]
entropy correction =  -0.010799166662002858
cycle= 12 E= -88.2131995457659  delta_E= -2.57e-10  |g|= 2.93e-05  |ddm|= 0.000147
HOMO: 0.7094542048959968 LUMO: 0.7287621913701937
mo_energy:
[0.21  0.212 0.217 0.218 0.273 0.283 0.607 0.611 0.612 0.612 0.625 0.627
 0.627 0.63  0.633 0.636 0.651 0.655 0.673 0.678 0.694 0.7   0.7   0.709
 0.729 0.741 0.751 0.762 0.774]
e_fermi =  0.7197321411274826
[2.    2.    2.    2.    2.    2.    2.    2.    2.    2.    2.    2.
 2.    2.    2.    2.    2.    2.    2.    2.    1.989 1.964 1.959 1.773
 0.282 0.029 0.004]
entropy correction =  -0.010790652729132457
Extra cycle  E= -88.2131995258446  delta_E= 1.99e-08  |g|= 0.000165  |ddm|= 0.000504
converged SCF energy = -88.2131995258446
|umat| =  0.22669478489692663
rks_ao.ne_frozen =  0
Set gradient conv threshold to 3.16228e-05
tot grids = 120648
init E= -388.54137229587
HOMO:  0.16870329796202838 LUMO:  0.18243275083565974
Fermi energy:       0.1757400539
[2.     2.     2.     2.     2.     2.     2.     2.     2.     2.
 2.     2.     2.     2.     2.     1.9778 1.6067 0.4155]
entropy correction =  -0.010678095814024291
cycle= 1 E= -322.173624406261  delta_E= 66.4  |g|= 8.99  |ddm|= 9.87
HOMO:  -8.861512942793103 LUMO:  -8.860926953047079
Fermi energy:      -8.8552954775
[2.     2.     2.     2.     2.     2.     2.     2.     1.9884 1.9766
 1.963  1.9253 1.847  1.832  1.7115 1.6936 1.5523 1.5103]
entropy correction =  -0.028386277490272227
cycle= 2 E= -385.937795602545  delta_E= -63.8  |g|= 3.36  |ddm|= 9.95
HOMO:  -1.867759387582384 LUMO:  -1.8542990565352109
Fermi energy:      -1.8566703521
[2.     2.     2.     2.     2.     2.     2.     2.     1.9887 1.987
 1.9837 1.9813 1.8979 1.8735 1.8641 1.8528 1.8037 0.7672]
entropy correction =  -0.02109562286495217
cycle= 3 E= -389.370517872316  delta_E= -3.43  |g|= 0.563  |ddm|= 3.18
HOMO:  -1.29719504384 LUMO:  -1.2949470688486664
Fermi energy:      -1.2956881434
[2.     2.     2.     2.     2.     2.     2.     2.     2.     2.
 2.     2.     2.     1.999  1.9712 1.9541 1.1496 0.926 ]
entropy correction =  -0.015610058751574046
cycle= 4 E= -388.30056548527  delta_E= 1.07  |g|= 1.89  |ddm|= 1.69
HOMO:  -1.4042746580847216 LUMO:  -1.4019703805772836
Fermi energy:      -1.4011637643
[2.     2.     2.     2.     2.     2.     2.     2.     1.9995 1.9988
 1.9959 1.9856 1.9794 1.9039 1.9006 1.8545 1.3014 1.0805]
entropy correction =  -0.0211026820034917
cycle= 5 E= -388.9928461572  delta_E= -0.692  |g|= 0.972  |ddm|= 1.53
HOMO:  -1.3660691940017682 LUMO:  -1.3542957135418967
Fermi energy:      -1.3599358734
[2.     2.     2.     2.     2.     2.     2.     2.     2.     2.
 2.     2.     2.     1.9992 1.9991 1.9663 1.5465 0.489 ]
entropy correction =  -0.011849173402971008
cycle= 6 E= -388.496354127391  delta_E= 0.496  |g|= 1.52  |ddm|= 1.72
HOMO:  -1.4005101026849014 LUMO:  -1.388543003266365
Fermi energy:      -1.3920128034
[2.     2.     2.     2.     2.     2.     2.     2.     2.     2.
 2.     2.     1.9999 1.9479 1.9404 1.7546 1.6909 0.6663]
entropy correction =  -0.016944936353116384
cycle= 7 E= -388.585652197252  delta_E= -0.0893  |g|= 1.43  |ddm|= 0.372
HOMO:  -1.401519114066754 LUMO:  -1.3871762650535855
Fermi energy:      -1.3923022153
[2.     2.     2.     2.     2.     2.     2.     2.     2.     2.
 2.     2.     1.9999 1.9546 1.9532 1.8376 1.7267 0.528 ]
entropy correction =  -0.014777929260381467
cycle= 8 E= -388.582958968452  delta_E= 0.00269  |g|= 1.43  |ddm|= 0.17
HOMO:  -1.4071114806790952 LUMO:  -1.3911465158632073
Fermi energy:      -1.3984547005
[2.     2.     2.     2.     2.     2.     2.     2.     2.     2.
 2.     1.9997 1.9989 1.9877 1.9822 1.9558 1.6992 0.3764]
entropy correction =  -0.011073105854259834
cycle= 9 E= -388.61353884449  delta_E= -0.0306  |g|= 1.37  |ddm|= 0.292
HOMO:  -1.4164451418499393 LUMO:  -1.4002912847702749
Fermi energy:      -1.4074099992
[2.     2.     2.     2.     2.     2.     2.     2.     2.     2.
 2.     1.9992 1.9968 1.979  1.9656 1.9533 1.718  0.3882]
entropy correction =  -0.011705145318878214
cycle= 10 E= -388.647919313587  delta_E= -0.0344  |g|= 1.34  |ddm|= 0.0923
HOMO:  -1.4075926992837222 LUMO:  -1.39181984719145
Fermi energy:      -1.3993619940
[2.     2.     2.     2.     2.     2.     2.     2.     2.     2.
 2.     1.9993 1.9979 1.995  1.9898 1.979  1.6767 0.3623]
entropy correction =  -0.010349722190546272
cycle= 11 E= -388.628065751038  delta_E= 0.0199  |g|= 1.36  |ddm|= 0.0745
HOMO:  -1.4068151112406786 LUMO:  -1.3899050203715655
Fermi energy:      -1.3979882640
[2.     2.     2.     2.     2.     2.     2.     2.     2.     2.
 2.     1.9996 1.9985 1.994  1.9878 1.981  1.7078 0.3313]
entropy correction =  -0.009841992757110568
cycle= 12 E= -388.616909864493  delta_E= 0.0112  |g|= 1.37  |ddm|= 0.069
HOMO:  -1.4060341268034628 LUMO:  -1.3908449270018357
Fermi energy:      -1.3978970018
[2.     2.     2.     2.     2.     2.     2.     2.     2.     2.
 2.     1.999  1.9962 1.994  1.9919 1.9548 1.6716 0.3923]
entropy correction =  -0.011141172516651608
cycle= 13 E= -388.65509094573  delta_E= -0.0382  |g|= 1.34  |ddm|= 0.153
HOMO:  -0.9056634239699449 LUMO:  -0.8332108225554677
Fermi energy:      -0.8694094209
[2.0000e+00 2.0000e+00 2.0000e+00 2.0000e+00 2.0000e+00 2.0000e+00
 2.0000e+00 2.0000e+00 2.0000e+00 2.0000e+00 2.0000e+00 2.0000e+00
 2.0000e+00 2.0000e+00 2.0000e+00 2.0000e+00 1.9986e+00 1.4340e-03]
entropy correction =  -0.0001185971524313476
cycle= 14 E= -347.720403672587  delta_E= 40.9  |g|= 15.1  |ddm|=  6.2
HOMO:  -1.163411389373339 LUMO:  -1.1630130225578375
Fermi energy:      -1.1644588019
[2.     2.     2.     2.     2.     2.     2.     2.     2.     2.
 2.     2.     2.     2.     1.8451 1.6564 0.8956 0.8564 0.7464]
entropy correction =  -0.027624264081503612
cycle= 15 E= -382.672343684174  delta_E=  -35  |g|= 4.64  |ddm|= 4.61
HOMO:  -1.4196702499698983 LUMO:  -1.4072197388457688
Fermi energy:      -1.4111978794
[2.     2.     2.     2.     2.     2.     2.     2.     2.     2.
 2.     2.     2.     1.9573 1.9534 1.7777 1.6896 0.6219]
entropy correction =  -0.016141900469737954
cycle= 16 E= -388.376003434445  delta_E= -5.7  |g|= 1.68  |ddm|= 2.45
HOMO:  -1.389096739604213 LUMO:  -1.3852429699929891
Fermi energy:      -1.3857606624
[2.     2.     2.     2.     2.     2.     2.     2.     2.     2.
 1.9999 1.9982 1.9859 1.9401 1.9227 1.8831 1.3218 0.9483]
entropy correction =  -0.019025760045889628
cycle= 17 E= -388.701879449481  delta_E= -0.326  |g|= 1.27  |ddm|= 1.58
HOMO:  -1.3819490819792883 LUMO:  -1.3679308899227152
Fermi energy:      -1.3743769026
[2.     2.     2.     2.     2.     2.     2.     2.     2.     2.
 2.     2.     2.     2.     1.9988 1.9298 1.6394 0.432 ]
entropy correction =  -0.011508320831801729
cycle= 18 E= -388.473520719153  delta_E= 0.228  |g|=  1.5  |ddm|= 1.78
HOMO:  -1.4085180324617845 LUMO:  -1.3900216782910095
Fermi energy:      -1.3977602132
[2.     2.     2.     2.     2.     2.     2.     2.     2.     2.
 1.9997 1.9986 1.998  1.9828 1.9811 1.8975 1.7916 0.3508]
entropy correction =  -0.01119242371060171
cycle= 19 E= -389.041989934133  delta_E= -0.568  |g|= 0.938  |ddm|= 2.05
HOMO:  -1.4063251991266827 LUMO:  -1.386989985293307
Fermi energy:      -1.3945049707
[2.     2.     2.     2.     2.     2.     2.     2.     2.     2.
 1.9996 1.9975 1.9962 1.995  1.9603 1.8594 1.8281 0.364 ]
entropy correction =  -0.011623132153716985
cycle= 20 E= -389.212114548251  delta_E= -0.17  |g|=  0.7  |ddm|= 0.236
HOMO:  -1.4107485387973848 LUMO:  -1.400237341630147
Fermi energy:      -1.4038990625
[2.     2.     2.     2.     2.     2.     2.     2.     1.9977 1.9974
 1.9934 1.9875 1.9858 1.9828 1.9606 1.8506 1.5947 0.6494]
entropy correction =  -0.016672126331023357
cycle= 21 E= -388.97388580941  delta_E= 0.238  |g|= 1.02  |ddm|= 0.854
HOMO:  -1.4174917626131882 LUMO:  -1.4075732929957305
Fermi energy:      -1.4099669483
[2.     2.     2.     2.     2.     2.     2.     2.     1.9965 1.9935
 1.9916 1.9679 1.9584 1.9133 1.9132 1.8638 1.6366 0.7651]
entropy correction =  -0.01990193823620278
cycle= 22 E= -389.392844288802  delta_E= -0.419  |g|= 0.287  |ddm|=    1
HOMO:  -1.4220078983331546 LUMO:  -1.4095870932065164
Fermi energy:      -1.4127259997
[2.     2.     2.     2.     2.     2.     2.     2.     1.9941 1.9937
 1.9884 1.9797 1.9489 1.933  1.92   1.8164 1.7297 0.696 ]
entropy correction =  -0.019162700852965446
cycle= 23 E= -389.424455302004  delta_E= -0.0316  |g|= 0.126  |ddm|= 1.08
HOMO:  -1.4201376871205889 LUMO:  -1.4159356066882278
Fermi energy:      -1.4137292833
[2.     2.     2.     2.     2.     2.     2.     2.     1.9953 1.9857
 1.9682 1.9535 1.9395 1.8707 1.847  1.6576 1.5655 1.2171]
entropy correction =  -0.025472104511799713
cycle= 24 E= -389.204593089032  delta_E= 0.22  |g|= 0.731  |ddm|= 0.918
HOMO:  -1.4207149944110968 LUMO:  -1.4157371798239626
Fermi energy:      -1.4133547521
[2.     2.     2.     2.     2.     2.     2.     2.     1.995  1.9836
 1.9654 1.9302 1.8986 1.8687 1.774  1.7238 1.6267 1.2338]
entropy correction =  -0.026474927316438183
cycle= 25 E= -389.338225412411  delta_E= -0.134  |g|= 0.484  |ddm|= 0.169
HOMO:  -1.421738732727669 LUMO:  -1.4148796359237128
Fermi energy:      -1.4137124459
[2.     2.     2.     2.     2.     2.     2.     2.     1.9927 1.9742
 1.9482 1.9323 1.9045 1.8366 1.8193 1.8106 1.6655 1.1162]
entropy correction =  -0.025905722131385076
cycle= 26 E= -389.353799363436  delta_E= -0.0156  |g|= 0.459  |ddm|= 0.269
HOMO:  -1.4218289727917686 LUMO:  -1.413503594124767
Fermi energy:      -1.4127245661
[2.     2.     2.     2.     2.     2.     2.     2.     1.9952 1.9718
 1.9632 1.9354 1.9018 1.896  1.7849 1.7527 1.7213 1.0777]
entropy correction =  -0.025350943440327366
cycle= 27 E= -389.330051635901  delta_E= 0.0237  |g|= 0.505  |ddm|= 0.259
HOMO:  -1.4227643655351832 LUMO:  -1.4127140890660013
Fermi energy:      -1.4126375940
[2.     2.     2.     2.     2.     2.     2.     2.     1.9919 1.9712
 1.9485 1.9302 1.9142 1.8928 1.8035 1.7731 1.7669 1.0076]
entropy correction =  -0.024866989726670036
cycle= 28 E= -389.373623825566  delta_E= -0.0436  |g|= 0.396  |ddm|= 0.134
HOMO:  -1.4236530882644738 LUMO:  -1.4128389240992945
Fermi energy:      -1.4130705736
[2.     2.     2.     2.     2.     2.     2.     2.     1.99   1.9656
 1.9317 1.9186 1.8867 1.8811 1.8635 1.801  1.785  0.9768]
entropy correction =  -0.024878588907159386
cycle= 29 E= -389.407545296148  delta_E= -0.0339  |g|= 0.294  |ddm|= 0.285
HOMO:  -1.4239197489410211 LUMO:  -1.4140682792809272
Fermi energy:      -1.4137853238
[2.     2.     2.     2.     2.     2.     2.     2.     1.9891 1.9714
 1.9328 1.9132 1.8827 1.8737 1.8577 1.7838 1.7672 1.0283]
entropy correction =  -0.025445696295159612
cycle= 30 E= -389.421235237609  delta_E= -0.0137  |g|= 0.235  |ddm|= 0.105
HOMO:  -1.4237750113937453 LUMO:  -1.4143008963657888
Fermi energy:      -1.4142537157
[2.     2.     2.     2.     2.     2.     2.     2.     1.9846 1.9747
 1.9243 1.9221 1.898  1.8813 1.8368 1.8327 1.7407 1.0047]
entropy correction =  -0.025142855934052643
cycle= 31 E= -389.421317925827  delta_E= -8.27e-05  |g|= 0.236  |ddm|= 0.164
HOMO:  -1.4240691982926703 LUMO:  -1.4122366505514763
Fermi energy:      -1.4131586311
[2.     2.     2.     2.     2.     2.     2.     2.     1.9807 1.9697
 1.9247 1.919  1.9096 1.9021 1.8586 1.8303 1.7973 0.9081]
entropy correction =  -0.02405296779499682
cycle= 32 E= -389.426589392213  delta_E= -0.00527  |g|= 0.207  |ddm|= 0.145
HOMO:  -1.4242853178688641 LUMO:  -1.4130902313948477
Fermi energy:      -1.4135491300
[2.     2.     2.     2.     2.     2.     2.     2.     1.9819 1.9714
 1.9158 1.9136 1.9002 1.8924 1.8496 1.83   1.7908 0.9541]
entropy correction =  -0.02471502645469386
cycle= 33 E= -389.434457160718  delta_E= -0.00787  |g|= 0.16  |ddm|= 0.0781
HOMO:  -1.4246084835253143 LUMO:  -1.4145471010917123
Fermi energy:      -1.4143067343
[2.     2.     2.     2.     2.     2.     2.     2.     1.9823 1.9772
 1.9229 1.9022 1.9001 1.8693 1.8546 1.7934 1.774  1.024 ]
entropy correction =  -0.025499269265116215
cycle= 34 E= -389.445106630776  delta_E= -0.0106  |g|= 0.0322  |ddm|= 0.121
HOMO:  -1.4252795487939225 LUMO:  -1.4143967729136946
Fermi energy:      -1.4146719995
[2.     2.     2.     2.     2.     2.     2.     2.     1.9805 1.9746
 1.9192 1.9063 1.8952 1.8823 1.8625 1.8209 1.786  0.9725]
entropy correction =  -0.024953282689914424
cycle= 35 E= -389.443316052411  delta_E= 0.00179  |g|= 0.0716  |ddm|= 0.133
HOMO:  -1.4248831127856771 LUMO:  -1.4144572412455891
Fermi energy:      -1.4144048949
[2.     2.     2.     2.     2.     2.     2.     2.     1.9817 1.9762
 1.9191 1.8993 1.8929 1.8794 1.8643 1.8009 1.781  1.0052]
entropy correction =  -0.025329691744106465
cycle= 36 E= -389.444791779237  delta_E= -0.00148  |g|= 0.0469  |ddm|= 0.0654
HOMO:  -1.4249918269624942 LUMO:  -1.4145997215861177
Fermi energy:      -1.4145008866
[2.     2.     2.     2.     2.     2.     2.     2.     1.9817 1.9767
 1.9196 1.898  1.8948 1.8757 1.8656 1.7966 1.7815 1.0099]
entropy correction =  -0.02537777144945585
cycle= 37 E= -389.445644670056  delta_E= -0.000853  |g|= 0.0144  |ddm|= 0.0214
HOMO:  -1.425001423818827 LUMO:  -1.4145631994074015
Fermi energy:      -1.4144985328
[2.     2.     2.     2.     2.     2.     2.     2.     1.9816 1.9766
 1.9194 1.8978 1.8943 1.8769 1.8662 1.7988 1.7819 1.0065]
entropy correction =  -0.025342849906713864
cycle= 38 E= -389.445706243897  delta_E= -6.16e-05  |g|= 0.00828  |ddm|= 0.0223
HOMO:  -1.424978358311841 LUMO:  -1.414493565034574
Fermi energy:      -1.4144401977
[2.     2.     2.     2.     2.     2.     2.     2.     1.9815 1.9765
 1.9189 1.8966 1.8963 1.8768 1.8664 1.7985 1.7833 1.0053]
entropy correction =  -0.02533301556144412
cycle= 39 E= -389.445736201179  delta_E= -3e-05  |g|= 0.00355  |ddm|= 0.0145
HOMO:  -1.424933506662513 LUMO:  -1.4144640137500262
Fermi energy:      -1.4144008894
[2.     2.     2.     2.     2.     2.     2.     2.     1.9815 1.9765
 1.9191 1.8969 1.8966 1.8761 1.866  1.7979 1.7831 1.0063]
entropy correction =  -0.025342097446284823
cycle= 40 E= -389.445739987063  delta_E= -3.79e-06  |g|= 0.00228  |ddm|= 0.00636
HOMO:  -1.4249688497081903 LUMO:  -1.4144763924960202
Fermi energy:      -1.4144243170
[2.     2.     2.     2.     2.     2.     2.     2.     1.9815 1.9765
 1.9189 1.897  1.8965 1.8764 1.8662 1.7984 1.7835 1.0052]
entropy correction =  -0.02533113792567622
cycle= 41 E= -389.44573945363  delta_E= 5.33e-07  |g|= 0.00267  |ddm|= 0.00371
HOMO:  -1.4249667005307118 LUMO:  -1.4144910964156927
Fermi energy:      -1.4144305599
[2.     2.     2.     2.     2.     2.     2.     2.     1.9815 1.9765
 1.919  1.8967 1.8966 1.8763 1.8661 1.7981 1.7832 1.0061]
entropy correction =  -0.025339984915904324
cycle= 42 E= -389.445742564678  delta_E= -3.11e-06  |g|= 0.000278  |ddm|= 0.00164
HOMO:  -1.4249658252740125 LUMO:  -1.4144871122878047
Fermi energy:      -1.4144280837
[2.     2.     2.     2.     2.     2.     2.     2.     1.9815 1.9765
 1.919  1.8967 1.8966 1.8763 1.8662 1.7981 1.7833 1.0059]
entropy correction =  -0.025338449594593346
cycle= 43 E= -389.445742548863  delta_E= 1.58e-08  |g|= 0.000314  |ddm|= 0.000529
HOMO:  -1.4249618499679966 LUMO:  -1.4144888809726193
Fermi energy:      -1.4144270778
[2.     2.     2.     2.     2.     2.     2.     2.     1.9815 1.9765
 1.919  1.8967 1.8965 1.8763 1.8662 1.798  1.7832 1.0062]
entropy correction =  -0.02534135794985102
cycle= 44 E= -389.445742595402  delta_E= -4.65e-08  |g|= 7.1e-05  |ddm|= 0.000547
HOMO:  -1.4249659305833444 LUMO:  -1.4144836417489919
Fermi energy:      -1.4144263431
[2.     2.     2.     2.     2.     2.     2.     2.     1.9815 1.9765
 1.9189 1.8968 1.8966 1.8763 1.8662 1.7982 1.7833 1.0057]
entropy correction =  -0.02533666800937207
cycle= 45 E= -389.445742592325  delta_E= 3.08e-09  |g|= 7.3e-05  |ddm|= 0.000521
HOMO:  -1.4249642627307888 LUMO:  -1.4144885920758545
Fermi energy:      -1.4144280862
[2.     2.     2.     2.     2.     2.     2.     2.     1.9815 1.9765
 1.919  1.8967 1.8965 1.8763 1.8662 1.7981 1.7832 1.0061]
entropy correction =  -0.02534000075374236
cycle= 46 E= -389.445742598161  delta_E= -5.84e-09  |g|= 4.83e-05  |ddm|= 0.000379
HOMO:  -1.4249644539387158 LUMO:  -1.4144878999543131
Fermi energy:      -1.4144278366
[2.     2.     2.     2.     2.     2.     2.     2.     1.9815 1.9765
 1.919  1.8967 1.8965 1.8763 1.8662 1.7981 1.7832 1.006 ]
entropy correction =  -0.025339529286314368
cycle= 47 E= -389.445742599505  delta_E= -1.34e-09  |g|= 8.81e-06  |ddm|= 0.000133
HOMO:  -1.4249643781848669 LUMO:  -1.4144880535860778
Fermi energy:      -1.4144278745
[2.     2.     2.     2.     2.     2.     2.     2.     1.9815 1.9765
 1.919  1.8967 1.8965 1.8763 1.8662 1.7981 1.7832 1.006 ]
entropy correction =  -0.02533965990363442
cycle= 48 E= -389.445742599223  delta_E= 2.81e-10  |g|= 3.24e-05  |ddm|= 6.27e-05
HOMO:  -1.4249645831786042 LUMO:  -1.4144882565650976
Fermi energy:      -1.4144280766
[2.     2.     2.     2.     2.     2.     2.     2.     1.9815 1.9765
 1.919  1.8967 1.8965 1.8763 1.8662 1.7981 1.7832 1.006 ]
entropy correction =  -0.025339659416902447
cycle= 49 E= -389.445742599696  delta_E= -4.72e-10  |g|= 3.05e-06  |ddm|= 3e-05
HOMO:  -1.4249642201762946 LUMO:  -1.4144881325046668
Fermi energy:      -1.4144278525
[2.     2.     2.     2.     2.     2.     2.     2.     1.9815 1.9765
 1.919  1.8967 1.8965 1.8763 1.8662 1.7981 1.7832 1.006 ]
entropy correction =  -0.025339760245400047
Extra cycle  E= -389.445742550732  delta_E= 4.9e-08  |g|= 0.000338  |ddm|= 0.000157
entropy correction =  -0.025339760245400047
rks_ao.ne_frozen =  0
Set gradient conv threshold to 3.16228e-05
tot grids = 139880
init E= -78.8821403612909
HOMO:  0.09186461775986715 LUMO:  0.10315206872062474
Fermi energy:       0.0984887871
[2.0000e+00 2.0000e+00 2.0000e+00 2.0000e+00 2.0000e+00 2.0000e+00
 2.0000e+00 2.0000e+00 2.0000e+00 2.0000e+00 2.0000e+00 2.0000e+00
 2.0000e+00 2.0000e+00 2.0000e+00 2.0000e+00 2.0000e+00 1.9999e+00
 1.9997e+00 1.9978e+00 1.9888e+00 1.9717e+00 1.8974e+00 1.5800e+00
 5.6477e-01 1.2329e-04]
entropy correction =  -0.014324062956956518
cycle= 1 E= -86.093087391969  delta_E= -7.21  |g|=  2.5  |ddm|= 11.7
HOMO:  0.4932095341477317 LUMO:  0.7195705887932586
Fermi energy:       0.6075283818
[2. 2. 2. 2. 2. 2. 2. 2. 2. 2. 2. 2. 2. 2. 2. 2. 2. 2. 2. 2. 2. 2. 2. 2.]
entropy correction =  0.0
cycle= 2 E= -86.8203396283914  delta_E= -0.727  |g|= 2.04  |ddm|= 8.59
HOMO:  0.7810843136909725 LUMO:  0.7830259124809724
Fermi energy:       0.7816521750
[2.     2.     2.     2.     2.     2.     2.     2.     2.     2.
 2.     2.     2.     2.     2.     2.     2.     2.     1.9992 1.9614
 1.8849 1.6565 1.1668 1.0567 0.8635 0.727  0.4015 0.2402 0.0246 0.0176]
entropy correction =  -0.04473338217582382
cycle= 3 E= -85.9947791817353  delta_E= 0.826  |g|= 1.56  |ddm|= 6.65
HOMO:  0.6995662852422361 LUMO:  0.7485099784142684
Fermi energy:       0.7239733684
[2.     2.     2.     2.     2.     2.     2.     2.     2.     2.
 2.     2.     2.     2.     2.     2.     2.     2.     2.     1.9999
 1.9983 1.9974 1.9955 1.9849 0.0147 0.0061 0.0031]
entropy correction =  -0.0015383935883367837
cycle= 4 E= -88.1892735980985  delta_E= -2.19  |g|= 0.186  |ddm|=  6.2
HOMO:  0.6998961189333118 LUMO:  0.7312480702011757
Fermi energy:       0.7158030510
[2.     2.     2.     2.     2.     2.     2.     2.     2.     2.
 2.     2.     2.     2.     2.     2.     2.     2.     1.9999 1.9999
 1.9971 1.9894 1.9889 1.9203 0.0871 0.0148 0.0024]
entropy correction =  -0.004796466859305806
cycle= 5 E= -88.2040353039292  delta_E= -0.0148  |g|= 0.104  |ddm|= 0.244
HOMO:  0.7142989360877442 LUMO:  0.7328036090959654
Fermi energy:       0.7240229394
[2.0000e+00 2.0000e+00 2.0000e+00 2.0000e+00 2.0000e+00 2.0000e+00
 2.0000e+00 2.0000e+00 2.0000e+00 2.0000e+00 2.0000e+00 2.0000e+00
 2.0000e+00 2.0000e+00 2.0000e+00 2.0000e+00 2.0000e+00 2.0000e+00
 1.9999e+00 1.9995e+00 1.9919e+00 1.9619e+00 1.9587e+00 1.7498e+00
 2.9455e-01 3.7835e-02 5.4113e-03 4.7432e-04]
entropy correction =  -0.011340728184676397
cycle= 6 E= -88.2130675658061  delta_E= -0.00903  |g|= 0.0113  |ddm|= 0.335
HOMO:  0.709478087351119 LUMO:  0.729025804125457
Fermi energy:       0.7198842815
[2.0000e+00 2.0000e+00 2.0000e+00 2.0000e+00 2.0000e+00 2.0000e+00
 2.0000e+00 2.0000e+00 2.0000e+00 2.0000e+00 2.0000e+00 2.0000e+00
 2.0000e+00 2.0000e+00 2.0000e+00 2.0000e+00 2.0000e+00 2.0000e+00
 1.9998e+00 1.9995e+00 1.9888e+00 1.9648e+00 1.9587e+00 1.7781e+00
 2.7688e-01 2.9274e-02 3.6288e-03 4.0154e-04]
entropy correction =  -0.01069215976858447
cycle= 7 E= -88.2131955336684  delta_E= -0.000128  |g|= 0.00209  |ddm|= 0.0535
HOMO:  0.7096404996434794 LUMO:  0.7288667083280919
Fermi energy:       0.7198698571
[2.0000e+00 2.0000e+00 2.0000e+00 2.0000e+00 2.0000e+00 2.0000e+00
 2.0000e+00 2.0000e+00 2.0000e+00 2.0000e+00 2.0000e+00 2.0000e+00
 2.0000e+00 2.0000e+00 2.0000e+00 2.0000e+00 2.0000e+00 2.0000e+00
 1.9998e+00 1.9995e+00 1.9892e+00 1.9638e+00 1.9589e+00 1.7711e+00
 2.8386e-01 2.9638e-02 3.6378e-03 4.0981e-04]
entropy correction =  -0.010839966294590383
cycle= 8 E= -88.2131357929107  delta_E= 5.97e-05  |g|= 0.00898  |ddm|= 0.0175
HOMO:  0.7096354538578304 LUMO:  0.7288265000918535
Fermi energy:       0.7198487889
[2.0000e+00 2.0000e+00 2.0000e+00 2.0000e+00 2.0000e+00 2.0000e+00
[...]
 1.9496 1.9153 1.8847 1.8674 1.8    1.7716 1.6871 1.2085]
entropy correction =  -0.027469545945062856
cycle= 22 E= -389.360927740502  delta_E= 0.0241  |g|= 0.53  |ddm|= 0.0397
HOMO:  -1.501091286175915 LUMO:  -1.4959476933116669
Fermi energy:      -1.4936411639
[2.     2.     2.     2.     2.     2.     2.     2.     1.9406 1.9383
 1.9265 1.8881 1.8843 1.865  1.8612 1.8372 1.6322 1.2266]
entropy correction =  -0.027914819398895247
cycle= 23 E= -389.456439801729  delta_E= -0.0955  |g|= 0.213  |ddm|= 0.169
HOMO:  -1.5017160910864995 LUMO:  -1.4978493645308846
Fermi energy:      -1.4928014022
[2.     2.     2.     2.     2.     2.     2.     2.     1.9426 1.9205
 1.9033 1.8741 1.8113 1.8015 1.7951 1.7734 1.7121 1.4659]
entropy correction =  -0.030378034905696953
cycle= 24 E= -389.471240899061  delta_E= -0.0148  |g|= 0.035  |ddm|= 0.375
HOMO:  -1.499927556438423 LUMO:  -1.4948277990295793
Fermi energy:      -1.4917320008
[2.     2.     2.     2.     2.     2.     2.     2.     1.9141 1.9118
 1.8986 1.8919 1.8641 1.8537 1.85   1.8409 1.6748 1.3001]
entropy correction =  -0.029142184115390997
cycle= 25 E= -389.473351103834  delta_E= -0.00211  |g|= 0.073  |ddm|= 0.288
HOMO:  -1.5012685914933088 LUMO:  -1.4962087670977682
Fermi energy:      -1.4928862733
[2.     2.     2.     2.     2.     2.     2.     2.     1.9114 1.8991
 1.8864 1.8847 1.8706 1.8578 1.8536 1.8311 1.6849 1.3205]
entropy correction =  -0.029438867401058545
cycle= 26 E= -389.47541101611  delta_E= -0.00206  |g|= 0.019  |ddm|= 0.0799
HOMO:  -1.5009641027924032 LUMO:  -1.495865714896198
Fermi energy:      -1.4927468160
[2.     2.     2.     2.     2.     2.     2.     2.     1.9032 1.8923
 1.8882 1.8842 1.8767 1.8668 1.8638 1.8466 1.676  1.3022]
entropy correction =  -0.029254168631077226
cycle= 27 E= -389.474328790187  delta_E= 0.00108  |g|= 0.0582  |ddm|= 0.0858
HOMO:  -1.5014505390436195 LUMO:  -1.4963970084303777
Fermi energy:      -1.4928957026
[2.     2.     2.     2.     2.     2.     2.     2.     1.9084 1.8821
 1.8803 1.8739 1.8697 1.8637 1.8611 1.8303 1.6939 1.3365]
entropy correction =  -0.02967505801365939
cycle= 28 E= -389.47543686249  delta_E= -0.00111  |g|= 0.0258  |ddm|= 0.0708
HOMO:  -1.5011806767625344 LUMO:  -1.4961242164690742
Fermi energy:      -1.4927803281
[2.     2.     2.     2.     2.     2.     2.     2.     1.9055 1.8868
 1.882  1.8776 1.8711 1.866  1.8645 1.8382 1.6858 1.3225]
entropy correction =  -0.029509075421769775
cycle= 29 E= -389.475765076492  delta_E= -0.000328  |g|= 0.00135  |ddm|= 0.0367
HOMO:  -1.5011697771782153 LUMO:  -1.4961140363940004
Fermi energy:      -1.4927931542
[2.     2.     2.     2.     2.     2.     2.     2.     1.9046 1.8859
 1.8824 1.8784 1.8693 1.8681 1.8665 1.8397 1.6846 1.3204]
entropy correction =  -0.029486183268885382
cycle= 30 E= -389.475768843718  delta_E= -3.77e-06  |g|= 0.00101  |ddm|= 0.0101
HOMO:  -1.501175484596907 LUMO:  -1.4961209504217572
Fermi energy:      -1.4928095310
[2.     2.     2.     2.     2.     2.     2.     2.     1.9046 1.8859
 1.8827 1.8789 1.8695 1.8679 1.8667 1.8403 1.684  1.3195]
entropy correction =  -0.029475261541331906
cycle= 31 E= -389.475770174854  delta_E= -1.33e-06  |g|= 0.00116  |ddm|= 0.00652
HOMO:  -1.5011946555770914 LUMO:  -1.4961398795335084
Fermi energy:      -1.4928237707
[2.     2.     2.     2.     2.     2.     2.     2.     1.9047 1.8857
 1.8828 1.8787 1.8696 1.8678 1.8665 1.84   1.6843 1.32  ]
entropy correction =  -0.029480483301258454
cycle= 32 E= -389.47577064201  delta_E= -4.67e-07  |g|= 0.000875  |ddm|= 0.00216
HOMO:  -1.5011904909443199 LUMO:  -1.496135642082443
Fermi energy:      -1.4928287777
[2.     2.     2.     2.     2.     2.     2.     2.     1.9045 1.8863
 1.8832 1.8788 1.8696 1.8677 1.8665 1.8405 1.6838 1.3191]
entropy correction =  -0.029469777652917455
cycle= 33 E= -389.475770878608  delta_E= -2.37e-07  |g|= 0.000183  |ddm|= 0.00175
HOMO:  -1.5011833555414906 LUMO:  -1.4961284050268842
Fermi energy:      -1.4928166243
[2.     2.     2.     2.     2.     2.     2.     2.     1.9046 1.886
 1.883  1.8788 1.8695 1.8678 1.8665 1.8402 1.684  1.3196]
entropy correction =  -0.02947552484432058
cycle= 34 E= -389.475770966886  delta_E= -8.83e-08  |g|= 0.000139  |ddm|= 0.00114
HOMO:  -1.501186806113573 LUMO:  -1.4961318893909814
Fermi energy:      -1.4928193147
[2.     2.     2.     2.     2.     2.     2.     2.     1.9046 1.886
 1.883  1.8787 1.8696 1.8677 1.8665 1.8402 1.6841 1.3197]
entropy correction =  -0.02947639801164329
cycle= 35 E= -389.475770971467  delta_E= -4.58e-09  |g|= 0.000121  |ddm|= 0.000375
HOMO:  -1.5011880214639983 LUMO:  -1.4961330940554889
Fermi energy:      -1.4928209589
[2.     2.     2.     2.     2.     2.     2.     2.     1.9046 1.8859
 1.8829 1.8788 1.8695 1.8678 1.8665 1.8402 1.6841 1.3196]
entropy correction =  -0.029475964152396915
cycle= 36 E= -389.475770978255  delta_E= -6.79e-09  |g|= 2.07e-05  |ddm|= 0.000288
HOMO:  -1.5011879757993825 LUMO:  -1.4961330846000234
Fermi energy:      -1.4928204551
[2.     2.     2.     2.     2.     2.     2.     2.     1.9046 1.8859
 1.8829 1.8788 1.8696 1.8678 1.8665 1.8402 1.6841 1.3197]
entropy correction =  -0.02947648419277842
cycle= 37 E= -389.475770979441  delta_E= -1.19e-09  |g|= 1.48e-05  |ddm|= 0.000149
HOMO:  -1.5011874168878052 LUMO:  -1.496132516267831
Fermi energy:      -1.4928201198
[2.     2.     2.     2.     2.     2.     2.     2.     1.9046 1.886
 1.8829 1.8788 1.8696 1.8678 1.8665 1.8402 1.6841 1.3196]
entropy correction =  -0.02947622742194692
cycle= 38 E= -389.47577097956  delta_E= -1.19e-10  |g|= 5.73e-06  |ddm|= 3.17e-05
HOMO:  -1.5011875609389722 LUMO:  -1.496132639936405
Fermi energy:      -1.4928201263
[2.     2.     2.     2.     2.     2.     2.     2.     1.9046 1.8859
 1.8829 1.8788 1.8696 1.8678 1.8665 1.8402 1.6841 1.3196]
entropy correction =  -0.029476367215946625
Extra cycle  E= -389.475770728946  delta_E= 2.51e-07  |g|= 0.000788  |ddm|= 0.000371
entropy correction =  -0.029476367215946625
rks_ao.ne_frozen =  0
Set gradient conv threshold to 3.16228e-05
tot grids = 139880
init E= -79.4266925126351
HOMO:  0.14654207283589743 LUMO:  0.16668192320398242
Fermi energy:       0.1565901959
[2.0000e+00 2.0000e+00 2.0000e+00 2.0000e+00 2.0000e+00 2.0000e+00
 2.0000e+00 2.0000e+00 2.0000e+00 2.0000e+00 2.0000e+00 2.0000e+00
 2.0000e+00 2.0000e+00 2.0000e+00 2.0000e+00 2.0000e+00 2.0000e+00
 2.0000e+00 2.0000e+00 2.0000e+00 2.0000e+00 2.0000e+00 1.7636e+00
 2.3458e-01 1.8381e-03]
entropy correction =  -0.007323150747357252
cycle= 1 E= -86.4657310057583  delta_E= -7.04  |g|= 2.43  |ddm|= 10.2
HOMO:  0.7390127127211408 LUMO:  0.8085234643205342
Fermi energy:       0.7737578351
[2.0000e+00 2.0000e+00 2.0000e+00 2.0000e+00 2.0000e+00 2.0000e+00
 2.0000e+00 2.0000e+00 2.0000e+00 2.0000e+00 2.0000e+00 2.0000e+00
 2.0000e+00 2.0000e+00 2.0000e+00 2.0000e+00 2.0000e+00 2.0000e+00
 2.0000e+00 2.0000e+00 2.0000e+00 2.0000e+00 2.0000e+00 1.9981e+00
 1.9095e-03]
entropy correction =  -0.0001527109192632843
cycle= 2 E= -87.230515460498  delta_E= -0.765  |g|= 1.89  |ddm|= 6.36
HOMO:  0.867681799490929 LUMO:  0.8766766155783401
Fermi energy:       0.8709186967
[2.     2.     2.     2.     2.     2.     2.     2.     2.     2.
 2.     2.     2.     2.     2.     2.     2.     2.     1.9999 1.9984
 1.9875 1.9542 1.704  1.3128 0.4804 0.3879 0.1606 0.0143]
entropy correction =  -0.02582212397133843
cycle= 3 E= -88.0972708566841  delta_E= -0.867  |g|= 0.609  |ddm|= 3.48
HOMO:  0.7999641302590342 LUMO:  0.8453017410230909
Fermi energy:       0.8203169824
[2.     2.     2.     2.     2.     2.     2.     2.     2.     2.
 2.     2.     2.     2.     2.     2.     2.     2.     2.     2.
 2.     2.     2.     1.9664 0.0134 0.0121 0.0054 0.0027]
entropy correction =  -0.001911855394992375
cycle= 4 E= -88.3565113115016  delta_E= -0.259  |g|= 0.286  |ddm|= 2.85
HOMO:  0.8222425755834675 LUMO:  0.8485264720596999
Fermi energy:       0.8334757759
[2.     2.     2.     2.     2.     2.     2.     2.     2.     2.
 2.     2.     2.     2.     2.     2.     2.     2.     2.     2.
 2.     2.     2.     1.8087 0.0939 0.0553 0.0219 0.0202]
entropy correction =  -0.007483883875741685
cycle= 5 E= -88.3877947149044  delta_E= -0.0313  |g|= 0.0746  |ddm|= 0.31
HOMO:  0.8456015071039733 LUMO:  0.8559496990101969
Fermi energy:       0.8482528292
[2.     2.     2.     2.     2.     2.     2.     2.     2.     2.
 2.     2.     2.     2.     2.     2.     2.     2.     2.     2.
 2.     1.9998 1.9995 1.2591 0.3533 0.2185 0.1212 0.0487]
entropy correction =  -0.018169819426289726
cycle= 6 E= -88.3866147440547  delta_E= 0.00118  |g|= 0.0861  |ddm|= 0.501
HOMO:  0.831486970169937 LUMO:  0.8490765916800045
Fermi energy:       0.8386129581
[2.     2.     2.     2.     2.     2.     2.     2.     2.     2.
 2.     2.     2.     2.     2.     2.     2.     2.     2.     2.
 2.     1.9999 1.9997 1.6123 0.2196 0.0899 0.0519 0.0267]
entropy correction =  -0.012143931601856563
cycle= 7 E= -88.3919298041907  delta_E= -0.00532  |g|= 0.016  |ddm|= 0.331
HOMO:  0.8329559087063426 LUMO:  0.8491988345854146
Fermi energy:       0.8394266067
[2.     2.     2.     2.     2.     2.     2.     2.     2.     2.
 2.     2.     2.     2.     2.     2.     2.     2.     2.     2.
 2.     1.9999 1.9997 1.5697 0.2481 0.0977 0.0554 0.0295]
entropy correction =  -0.012962965878565777
cycle= 8 E= -88.3921028770946  delta_E= -0.000173  |g|= 0.00699  |ddm|= 0.0411
HOMO:  0.8334674275086763 LUMO:  0.8492399195677147
Fermi energy:       0.8397102485
[2.     2.     2.     2.     2.     2.     2.     2.     2.     2.
 2.     2.     2.     2.     2.     2.     2.     2.     2.     2.
 2.     1.9999 1.9997 1.5541 0.2589 0.1005 0.0565 0.0304]
entropy correction =  -0.013246806441207128
cycle= 9 E= -88.3921350849615  delta_E= -3.22e-05  |g|= 0.000678  |ddm|= 0.0173
HOMO:  0.8334628484685405 LUMO:  0.84903838769672
Fermi energy:       0.8396415107
[2.     2.     2.     2.     2.     2.     2.     2.     2.     2.
 2.     2.     2.     2.     2.     2.     2.     2.     2.     2.
 2.     1.9999 1.9997 1.5496 0.2649 0.0993 0.056  0.0306]
entropy correction =  -0.01330806692939648
cycle= 10 E= -88.3921357572785  delta_E= -6.72e-07  |g|= 0.000576  |ddm|= 0.00596
HOMO:  0.8334451092639362 LUMO:  0.8489836548195651
Fermi energy:       0.8396152030
[2.     2.     2.     2.     2.     2.     2.     2.     2.     2.
 2.     2.     2.     2.     2.     2.     2.     2.     2.     2.
 2.     1.9999 1.9997 1.549  0.2662 0.0988 0.0558 0.0305]
entropy correction =  -0.013312925542545642
cycle= 11 E= -88.3921357755921  delta_E= -1.83e-08  |g|= 0.000532  |ddm|= 0.00142
HOMO:  0.8333576722208922 LUMO:  0.8489326702680053
Fermi energy:       0.8395531283
[2.     2.     2.     2.     2.     2.     2.     2.     2.     2.
 2.     2.     2.     2.     2.     2.     2.     2.     2.     2.
 2.     1.9999 1.9997 1.5508 0.2657 0.0981 0.0554 0.0304]
entropy correction =  -0.013276638923504495
cycle= 12 E= -88.3921359783484  delta_E= -2.03e-07  |g|= 4.18e-05  |ddm|= 0.00174
HOMO:  0.833362891146713 LUMO:  0.8489362794140488
Fermi energy:       0.8395570881
[2.     2.     2.     2.     2.     2.     2.     2.     2.     2.
 2.     2.     2.     2.     2.     2.     2.     2.     2.     2.
 2.     1.9999 1.9997 1.5507 0.2657 0.0981 0.0554 0.0304]
entropy correction =  -0.013278519195699189
cycle= 13 E= -88.3921359794945  delta_E= -1.15e-09  |g|= 7.64e-06  |ddm|= 0.000116
HOMO:  0.8333627151112531 LUMO:  0.8489360840259894
Fermi energy:       0.8395569373
[2.     2.     2.     2.     2.     2.     2.     2.     2.     2.
 2.     2.     2.     2.     2.     2.     2.     2.     2.     2.
 2.     1.9999 1.9997 1.5507 0.2657 0.0981 0.0554 0.0304]
entropy correction =  -0.013278466287687696
cycle= 14 E= -88.3921359795202  delta_E= -2.58e-11  |g|= 1.42e-06  |ddm|= 1.5e-05
HOMO:  0.8333627683254059 LUMO:  0.8489359220875842
Fermi energy:       0.8395569244
[2.     2.     2.     2.     2.     2.     2.     2.     2.     2.
 2.     2.     2.     2.     2.     2.     2.     2.     2.     2.
 2.     1.9999 1.9997 1.5507 0.2657 0.0981 0.0554 0.0304]
entropy correction =  -0.013278525075557868
Extra cycle  E= -88.3921359795149  delta_E= 5.31e-12  |g|= 3.6e-06  |ddm|= 1.12e-05
entropy correction =  -0.013278525075557868
scf energies:
EA (no vemb contrib.) =  -445.6962905556072
EB (no vemb contrib.) =  -181.70437477187465
W =  -627.2134465568547
P_imp change (scf - non-scf):  0.7031144149422656
P_bath change (scf - non-scf):  1.8070259861697984
|P_frag + P_env - P_ref| =  1.100294767146756
max element of (P_frag + P_env - P_ref) =  0.09862061795423632
mo orthogonality:
[[ 2.8268e-03  1.0075e-02  4.3213e-06  2.2458e-04  1.9077e-02  1.5042e-04
  -4.1753e-05  1.6696e-03 -1.0625e-02 -2.2144e-03 -1.7539e-03 -1.7477e-04
   2.7346e-03 -4.9752e-03 -3.1174e-02  1.2237e-01 -8.2960e-04  1.3700e-03
   4.4655e-05  2.7880e-02  1.0204e-03  9.4253e-04 -1.0632e-01  7.5947e-04
  -3.9336e-04 -1.3534e-03  1.1168e-02 -5.9157e-02 -1.6944e-03]
 [-9.6141e-03  2.9162e-03 -2.6294e-04  1.0510e-04  4.4689e-03 -3.2931e-05
  -6.9281e-05 -3.4599e-04 -2.5896e-03 -4.4741e-04  5.2426e-04 -2.1676e-03
  -4.9347e-03 -1.6040e-03  1.1866e-01  3.1954e-02 -8.9617e-04  9.7896e-04
  -6.0994e-04 -1.1937e-01 -1.0141e-03  2.6670e-03 -2.4863e-02  4.8461e-04
  -8.4279e-06 -5.8518e-03 -4.0417e-02 -1.4886e-02  5.0732e-03]
 [ 9.0451e-03  1.6443e-03  2.8147e-04  2.2334e-04 -3.9423e-03  4.3030e-04
  -6.0301e-04  1.7959e-02 -5.3524e-04 -3.7387e-04 -4.3251e-04  6.0283e-04
   1.8240e-03 -3.7929e-04 -4.8547e-02  1.1422e-02 -1.5360e-03 -9.3966e-04
  -2.9212e-04 -4.7212e-02 -5.5163e-04  3.2070e-04  1.4323e-02 -1.9301e-04
  -8.0668e-05  3.1605e-03  2.0035e-02  3.6504e-03 -7.7489e-04]
 [ 1.7574e-03 -8.7225e-03 -2.1619e-04 -1.7345e-04  1.5859e-02  1.9301e-04
  -1.0271e-04  2.5394e-03  1.3091e-02  1.5704e-03  4.7316e-04  3.9919e-04
  -9.2406e-05  1.0046e-03 -1.0655e-02 -5.1603e-02  3.4829e-04  2.4820e-03
  -5.6667e-05 -1.1740e-02  1.9560e-04  9.8203e-04 -5.7420e-02  3.1454e-04
  -1.8891e-04 -3.6497e-04  5.6605e-03 -1.2525e-02 -1.6464e-03]
 [-3.0665e-04 -2.7658e-04  8.0231e-03  5.3512e-03  5.5241e-04  1.0135e-02
  -4.6900e-05  4.6440e-05  2.0631e-04  1.6953e-04  7.0762e-04 -1.4266e-04
  -9.4378e-03  1.5232e-02  7.1167e-04 -9.4620e-04 -3.8801e-02 -6.0354e-02
  -1.0326e-04  6.2186e-04  5.2718e-04 -1.1385e-02 -2.3663e-03 -3.8315e-03
   6.2201e-04  1.0204e-02  3.1822e-04 -1.9828e-04  1.6740e-02]
 [ 3.9506e-06 -1.1586e-04 -5.5616e-03  7.7699e-03 -5.0667e-04  1.3555e-02
  -2.4315e-05 -1.0018e-04 -2.0681e-04 -1.0210e-04 -2.0622e-04 -5.2728e-04
  -7.3604e-03 -1.3456e-02  1.7005e-04 -3.3668e-05 -5.0934e-02  4.5816e-02
  -1.3023e-04  7.0882e-04  6.6976e-04 -1.5440e-02  1.0702e-03  2.8945e-03
   8.2232e-04  1.3762e-02 -3.3200e-03 -1.1432e-03 -1.0784e-02]
 [ 6.7262e-06 -2.9296e-05 -2.3996e-05 -1.9010e-05 -3.6264e-06 -3.1827e-05
   2.8203e-02  8.6439e-04  8.5980e-04 -1.4102e-02  2.3527e-04  1.4740e-05
   1.8307e-05 -3.5441e-04  3.1071e-07 -1.6724e-04 -4.9716e-05 -1.0611e-04
   2.4318e-02 -1.6704e-04 -1.3687e-04 -1.2734e-04  9.9437e-06 -9.9903e-05
   3.4303e-02 -2.4779e-03  5.4697e-04 -1.0624e-03 -1.3641e-03]
 [ 1.4989e-05  3.7064e-05  3.8425e-05 -1.0215e-05  2.9650e-05 -2.0174e-05
   1.6414e-02  7.2613e-04 -1.5610e-03  2.4516e-02  1.6183e-04  5.8418e-04
  -1.3611e-04  5.4119e-04 -5.0546e-05  2.5341e-04 -1.9599e-05  1.5143e-04
   1.4658e-02 -1.3423e-04 -8.3298e-05 -5.9579e-05 -1.0722e-04  2.0768e-04
   2.0664e-02 -1.5790e-03  3.2895e-04  1.4793e-03  2.1172e-03]
 [ 2.5955e-04 -1.1781e-03 -2.6908e-06  2.7723e-05  2.5102e-03 -7.8155e-05
  -1.6175e-04  4.4867e-03 -3.1541e-02  7.5929e-04  1.0143e-03  5.4743e-04
   2.2975e-04  5.3103e-04  4.6632e-04 -1.2094e-02 -5.2829e-05  1.1445e-04
  -2.5467e-04 -1.7752e-04 -7.2796e-04  5.1155e-04 -2.0450e-02 -6.0209e-04
  -9.0955e-05 -6.4127e-04 -3.9056e-04 -3.6971e-03 -6.8755e-05]
 [-4.2232e-04  4.6912e-04 -7.0001e-05  5.3578e-05  1.6574e-03 -5.1581e-05
  -6.9007e-04 -3.5808e-04 -3.5590e-03 -1.9253e-02  1.3219e-03  1.5754e-03
   1.2411e-04 -5.1895e-04  1.4303e-04 -1.6626e-03 -1.0743e-04 -9.0822e-05
   2.7610e-03  5.6726e-04 -2.3316e-03  9.4533e-05 -3.0706e-03 -7.2490e-04
   2.9574e-04  1.1498e-04  1.0507e-03  3.7837e-03  3.8564e-04]
 [ 4.2346e-03 -3.2518e-04  7.9251e-05 -2.6321e-04 -1.8922e-04  4.1855e-04
   1.3246e-02  5.0472e-03  5.6218e-04 -1.3006e-03  3.9884e-03 -8.1421e-03
   1.6163e-04 -1.3341e-04  1.4079e-04 -9.0688e-05  7.3834e-04 -3.1267e-05
  -3.6565e-02 -3.9648e-03 -3.0470e-04 -9.0588e-04 -1.1749e-04 -9.8044e-05
  -3.8752e-03 -9.8561e-04 -1.0202e-02 -6.4823e-04  1.1345e-03]
 [-1.2948e-02  8.1633e-04 -2.7987e-04  1.0785e-03  3.5815e-04 -1.6873e-03
  -2.6818e-03 -4.6285e-03 -1.0484e-03  1.9424e-06  7.6956e-03 -1.7244e-02
   1.6438e-03  2.3458e-04 -3.5272e-03 -2.1803e-04 -2.5170e-03  3.8248e-05
   8.0409e-03  9.3234e-03 -5.9367e-04  4.0787e-03 -1.8112e-04 -2.2537e-04
   7.3279e-04  3.4983e-03  3.0798e-02  1.5256e-03 -3.3259e-03]
 [ 4.8696e-03 -4.7362e-04  1.9278e-05 -2.0067e-03 -4.8519e-04  3.4283e-03
  -4.8814e-03  2.7642e-02  3.7485e-03 -4.1374e-04  5.4602e-04 -5.2417e-03
  -7.9404e-04 -4.3548e-04 -5.3971e-03 -3.0493e-04  5.3636e-03 -1.2418e-04
   1.0959e-02 -1.2552e-02  2.0518e-03 -8.3875e-03 -2.7818e-04 -1.5646e-04
   1.2279e-03 -1.0982e-03 -1.2385e-02 -1.6843e-03  1.3002e-03]
 [-2.5170e-03  8.0131e-04 -3.5593e-05 -2.7523e-04  1.1219e-03  5.7438e-04
   4.9690e-05  3.0147e-03  1.6920e-03  1.2967e-03  2.1833e-02  1.1341e-02
  -6.1034e-05 -8.6725e-04 -1.6573e-03  9.6605e-04  8.8225e-04 -7.4908e-05
  -1.3360e-03  7.2180e-04 -2.9925e-02 -2.7722e-03  4.1982e-04  3.9417e-04
  -1.9038e-04  9.6480e-04  5.8376e-03  3.6768e-03 -6.2796e-04]
 [-1.7069e-02  8.1953e-04 -4.5033e-04 -5.2876e-04 -1.6693e-04  1.2618e-03
   4.0854e-03  8.2115e-03  6.3789e-04 -1.4728e-04 -8.1033e-03  8.1184e-03
  -6.2368e-04  2.0986e-05 -7.5851e-03 -4.5562e-04  2.0639e-03 -2.2181e-05
  -1.1906e-02  7.5611e-03  5.5586e-03 -2.9685e-03 -2.4818e-04 -3.7556e-04
  -1.4446e-03  5.2229e-03  4.0102e-02  3.1757e-04 -4.3840e-03]
 [-1.1108e-03 -1.6383e-02  2.6149e-04 -3.7858e-04 -3.2517e-02 -2.5439e-04
  -1.7707e-05 -3.7817e-04 -5.3627e-04 -4.1433e-04  1.0684e-03  4.4588e-04
  -1.2185e-04  4.7941e-04  1.6831e-04 -5.2795e-03  8.1351e-05 -4.2768e-04
   1.4525e-04  3.3365e-04 -1.5784e-03 -1.5071e-04  2.1583e-03  1.1553e-03
  -4.3357e-04 -2.6610e-03  2.5161e-03 -8.9985e-02 -1.4595e-04]
 [ 6.0223e-04 -6.4713e-04  1.0062e-03  2.5170e-02  2.6788e-04 -4.5299e-02
  -3.5990e-04  3.4801e-03  7.4528e-04  9.1091e-06 -4.5158e-04  1.1334e-03
   1.3727e-02  2.1189e-03 -2.6079e-04 -6.8166e-04 -6.5152e-02  4.6348e-04
   6.5735e-06  1.2318e-03 -5.0758e-03  1.1138e-01  1.6415e-03  3.4032e-04
   1.0168e-04 -7.9258e-03 -5.0483e-04  2.9704e-04  4.6002e-04]
 [-4.9223e-04  4.9000e-04  2.1343e-02 -8.2736e-04  2.4332e-04  1.2762e-04
   1.2951e-05  2.6348e-04 -9.9185e-04 -9.9255e-04  1.9521e-04  1.4096e-05
  -1.2051e-03  7.7762e-03  2.3424e-04 -4.3722e-05 -1.1861e-04 -1.8201e-02
  -6.1930e-05  2.3858e-04 -1.0857e-04 -2.2267e-04  1.7855e-04  1.7671e-01
  -1.0567e-04 -6.3637e-04  2.7666e-03  1.6949e-03  1.8611e-02]]
|P_imp-P_imp_0| =  0.7031144149422656
max(P_imp-P_imp_0) =  0.23545336632813016
|P_bath-P_bath_0| =  1.8070259861697984
max(P_bath-P_bath_0) =  0.1764464655533051
time of total calc time : 70524.420  (cpu),  1863.882  (wall) 
Skip  = number of BFGS updates skipped
Nact  = number of active bounds at final generalized Cauchy point
Projg = norm of the final projected gradient
F     = final function value

           * * *

   N    Tit     Tnf  Tnint  Skip  Nact     Projg        F
 4278     50     57      1     0     0   4.023D-01   3.264D-01
  F =  0.32644196667027298     

STOP: TOTAL NO. of ITERATIONS REACHED LIMIT                 

 Cauchy                time 0.000E+00 seconds.
 Subspace minimization time 0.000E+00 seconds.
 Line search           time 0.000E+00 seconds.

 Total User time 0.000E+00 seconds.

