#INFO: **** input file is /tigress/xingz/pydmfet/examples/research/proj/Cu2/dmfet/Cu2.py ****
from pydmfet import locints, sdmfet, oep, tools, dfet_ao, proj_ao
from pydmfet.dfet_ao import dfet
from pydmfet.qcwrap.pyscf_rks_ao import rks_ao
from pyscf import gto, scf,dft, ao2mo,cc
import numpy as np
from pyscf.tools import molden, cubegen
import copy,time
from pydmfet.tools.sym import h_lattice_sym_tab
import time

t0 = (time.clock(), time.time())


bas = 'lanl2dz'
ecp = 'lanl2dz'
temp = 0.005


mol = gto.Mole()
mol.atom = open('Cu2.xyz').read()
mol.basis = bas
mol.ecp = ecp
mol.charge = -2
mol.build(max_memory = 16000, verbose=4)

mf = rks_ao(mol,smear_sigma = temp)
mf.xc = 'pbe,pbe'
mf.max_cycle = 50
mf.scf(dm0=None)


natoms = mol.natm
impAtom = np.zeros([natoms], dtype=int)
for i in range(2):
    impAtom[i] = 1

ghost_frag = 1-impAtom
ghost_env = 1-ghost_frag

mol_frag = gto.Mole()
mol_frag.atom = tools.add_ghost(mol.atom, ghost_frag)
mol_frag.basis = bas
mol_frag.ecp = ecp
mol_frag.charge = 4
mol_frag.build(max_memory = 16000,verbose = 4)

mol_env = gto.Mole()
mol_env.atom = tools.add_ghost(mol.atom, ghost_env)
mol_env.basis =  bas
mol_env.ecp = ecp
mol_env.charge = -6
mol_env.build(max_memory = 16000,verbose = 4)

Ne_frag = 34
Ne_env = 48

boundary_atoms = None
boundary_atoms2 =None

umat = None
umat = np.load("umat.npy")

params = oep.OEPparams(algorithm = 'leastsq', opt_method = 'L-BFGS-B', diffP_tol=1e-3, outer_maxit = 20)
params.options['ftol'] = 1e-9
params.options['gtol'] = 1e-3
params.options['maxiter'] = 100
params.options['svd_thresh'] = 1e-2

theDMFET = dfet.DFET(mf, mol_frag, mol_env,Ne_frag,Ne_env,\
                     boundary_atoms=boundary_atoms, boundary_atoms2=boundary_atoms2,umat = umat,\
                     oep_params=params, smear_sigma=temp, ecw_method = 'hf',mf_method = mf.xc, plot_dens=True,\
                     scf_max_cycle = 200)

umat = theDMFET.embedding_potential()

t1 = tools.timer("total calc time", t0)
#INFO: ******************** input file end ********************


System: uname_result(system='Linux', node='tiger-h25c2n24', release='3.10.0-957.27.2.el7.x86_64', version='#1 SMP Tue Jul 30 11:12:20 EDT 2019', machine='x86_64', processor='x86_64')  Threads 40
Python 3.7.0 (default, Jun 28 2018, 13:15:42) 
[GCC 7.2.0]
numpy 1.16.4  scipy 1.4.0.dev0+0f78e0f
Date: Sat Sep  7 20:42:55 2019
PySCF version 1.5
PySCF path  /home/xingz/.local/lib/python3.7/site-packages/pyscf

[CONFIG] conf_file None
[INPUT] verbose = 4
[INPUT] num. atoms = 8
[INPUT] num. electrons = 82
[INPUT] charge = -2
[INPUT] spin (= nelec alpha-beta = 2S) = 0
[INPUT] symmetry False subgroup None
[INPUT] Mole.unit = angstrom
[INPUT]  1 Cu    -0.441980000000   1.042360000000  -0.035730000000 AA   -0.835221152535   1.969774923202  -0.067519914431 Bohr
[INPUT]  2 Cu     2.942440000000   1.248890000000   0.035730000000 AA    5.560405737965   2.360060059708   0.067519914431 Bohr
[INPUT]  3 Cl    -1.897990000000  -0.682570000000   0.075050000000 AA   -3.586681287163  -1.289870360844   0.141823945649 Bohr
[INPUT]  4 Cl    -2.090880000000   2.577820000000  -0.212080000000 AA   -3.951190559331   4.871373798426  -0.400773116498 Bohr
[INPUT]  5 Cl     1.158810000000   2.690810000000  -0.136080000000 AA    2.189833530407   5.084893953241  -0.257153931031 Bohr
[INPUT]  6 Cl     1.341650000000  -0.399560000000   0.136080000000 AA    2.535351055023  -0.755058970331   0.257153931031 Bohr
[INPUT]  7 Cl     4.398440000000   2.973820000000  -0.075050000000 AA    8.311846975332   5.619705343754  -0.141823945649 Bohr
[INPUT]  8 Cl     4.591340000000  -0.286580000000   0.212080000000 AA    8.676375144761  -0.541557712778   0.400773116498 Bohr

nuclear repulsion = 451.217501293853
number of shells = 38
number of NR pGTOs = 162
number of NR cGTOs = 92
basis = lanl2dz
ecp = lanl2dz
CPU time:         4.66
rks_ao.ne_frozen =  0


******** <class 'pydmfet.qcwrap.pyscf_rks_ao.rks_ao'> flags ********
method = rks_ao-RKS-RHF
initial guess = minao
damping factor = 0
level shift factor = 0
DIIS = <class 'pyscf.scf.diis.CDIIS'>
DIIS start cycle = 1
DIIS space = 8
SCF tol = 1e-09
SCF gradient tol = None
max. SCF cycles = 50
direct_scf = False
chkfile to save SCF result = /tmp/tmpwzntyc48
max_memory 16000 MB (current use 67 MB)
XC functionals = pbe,pbe
small_rho_cutoff = 1e-07
radial grids: 
    Treutler-Ahlrichs (JCP 102, 346 (M4)) radial grids
    
becke partition: Becke, JCP, 88, 2547 (1988)
pruning grids: <function nwchem_prune at 0x2b44741f3400>
grids dens level: 3
symmetrized grids: False
atomic radii adjust function: <function treutler_atomic_radii_adjust at 0x2b44741f3378>
Set gradient conv threshold to 3.16228e-05
tot grids = 154128
init E= -467.462792451998
HOMO:  0.21874871437076365 LUMO:  0.228314375019373
Fermi energy:       0.2235718634
[2.     2.     2.     2.     2.     2.     2.     2.     2.     2.
 2.     2.     2.     2.     2.     2.     2.     2.     2.     2.
 2.     2.     2.     2.     2.     2.     2.     2.     2.     2.
 2.     2.     2.     2.     2.     2.     2.     2.     2.     1.9935
 1.4481 0.5584]
entropy correction =  -0.012030461857620703
cycle= 1 E= -410.105804071394  delta_E= 57.4  |g|= 8.39  |ddm|= 25.9
HOMO:  -1.563009642072643 LUMO:  -1.5367266498379333
Fermi energy:      -1.5499972181
[2.0000e+00 2.0000e+00 2.0000e+00 2.0000e+00 2.0000e+00 2.0000e+00
 2.0000e+00 2.0000e+00 2.0000e+00 2.0000e+00 2.0000e+00 2.0000e+00
 2.0000e+00 2.0000e+00 2.0000e+00 2.0000e+00 2.0000e+00 2.0000e+00
 2.0000e+00 2.0000e+00 2.0000e+00 2.0000e+00 2.0000e+00 2.0000e+00
 2.0000e+00 2.0000e+00 2.0000e+00 2.0000e+00 2.0000e+00 2.0000e+00
 2.0000e+00 2.0000e+00 2.0000e+00 2.0000e+00 2.0000e+00 2.0000e+00
 2.0000e+00 2.0000e+00 2.0000e+00 1.9796e+00 1.8620e+00 1.3147e-01
 2.6598e-02 2.7833e-04]
entropy correction =  -0.006223922518916346
cycle= 2 E= -401.538612213431  delta_E= 8.57  |g|= 7.31  |ddm|= 29.4
HOMO:  -0.13457902039485856 LUMO:  -0.05948338425678939
Fermi energy:      -0.0972415566
[2.0000e+00 2.0000e+00 2.0000e+00 2.0000e+00 2.0000e+00 2.0000e+00
 2.0000e+00 2.0000e+00 2.0000e+00 2.0000e+00 2.0000e+00 2.0000e+00
 2.0000e+00 2.0000e+00 2.0000e+00 2.0000e+00 2.0000e+00 2.0000e+00
 2.0000e+00 2.0000e+00 2.0000e+00 2.0000e+00 2.0000e+00 2.0000e+00
 2.0000e+00 2.0000e+00 2.0000e+00 2.0000e+00 2.0000e+00 2.0000e+00
 2.0000e+00 2.0000e+00 2.0000e+00 2.0000e+00 2.0000e+00 2.0000e+00
 2.0000e+00 2.0000e+00 2.0000e+00 2.0000e+00 1.9989e+00 1.0500e-03]
entropy correction =  -9.862463108497857e-05
cycle= 3 E= -466.99395369578  delta_E= -65.5  |g|= 5.85  |ddm|= 17.5
HOMO:  -0.1963237795386163 LUMO:  -0.19597791274161733
Fermi energy:      -0.1928443984
[2.     2.     2.     2.     2.     2.     2.     2.     2.     2.
 2.     2.     2.     2.     2.     2.     2.     2.     2.     2.
 2.     2.     2.     2.     2.     2.     2.     2.     2.     2.
 2.     2.     1.9998 1.9993 1.9979 1.9965 1.9471 1.9432 1.7416 1.7367
 1.3345 1.3035]
entropy correction =  -0.02333743947619068
cycle= 4 E= -479.585920348137  delta_E= -12.6  |g|= 3.08  |ddm|=   11
HOMO:  -0.059338273871694935 LUMO:  -0.05834657233047334
Fermi energy:      -0.0587610219
[2.     2.     2.     2.     2.     2.     2.     2.     2.     2.
 2.     2.     2.     2.     2.     2.     2.     2.     2.     2.
 2.     2.     2.     2.     2.     2.     2.     2.     2.     2.
 2.     2.     2.     2.     2.     2.     2.     2.     1.9952 1.9886
 1.0577 0.9586]
entropy correction =  -0.014359029431147578
cycle= 5 E= -480.69288228319  delta_E= -1.11  |g|= 2.31  |ddm|= 2.58
HOMO:  -0.08914554980590929 LUMO:  -0.08619386496824973
Fermi energy:      -0.0862274399
[2.     2.     2.     2.     2.     2.     2.     2.     2.     2.
 2.     2.     2.     2.     2.     2.     2.     2.     2.     2.
 2.     2.     2.     2.     2.     2.     2.     2.     2.     2.
 2.     2.     2.     1.9996 1.9996 1.9987 1.9985 1.9947 1.9796 1.7489
 1.2838 0.9966]
entropy correction =  -0.01814335304455688
cycle= 6 E= -481.537345800992  delta_E= -0.844  |g|= 1.68  |ddm|= 1.24
HOMO:  -0.0367239453728596 LUMO:  -0.03666691925237794
Fermi energy:      -0.0355754632
[2.     2.     2.     2.     2.     2.     2.     2.     2.     2.
 2.     2.     2.     2.     2.     2.     2.     2.     2.     2.
 2.     2.     2.     2.     2.     2.     2.     2.     2.     2.
 2.     2.     1.9994 1.9978 1.9955 1.9897 1.9852 1.9687 1.9249 1.9157
 1.1143 1.1087]
entropy correction =  -0.018924041241955628
cycle= 7 E= -481.434005675673  delta_E= 0.103  |g|= 1.83  |ddm|= 1.23
HOMO:  -0.03173842005114565 LUMO:  -0.02830404117005616
Fermi energy:      -0.0293123723
[2.     2.     2.     2.     2.     2.     2.     2.     2.     2.
 2.     2.     2.     2.     2.     2.     2.     2.     2.     2.
 2.     2.     2.     2.     2.     2.     2.     2.     2.     2.
 2.     2.     1.9999 1.9995 1.9994 1.9991 1.9991 1.9983 1.9857 1.8815
 1.238  0.8995]
entropy correction =  -0.016403779535479307
cycle= 8 E= -481.849488238144  delta_E= -0.415  |g|= 1.29  |ddm|= 1.31
HOMO:  -0.010333376749980213 LUMO:  0.0007074607272897028
Fermi energy:      -0.0039251597
[2.     2.     2.     2.     2.     2.     2.     2.     2.     2.
 2.     2.     2.     2.     2.     2.     2.     2.     2.     2.
 2.     2.     2.     2.     2.     2.     2.     2.     2.     2.
 2.     1.9993 1.9989 1.9983 1.9929 1.9922 1.9893 1.984  1.9793 1.9331
 1.5655 0.5673]
entropy correction =  -0.014677098352882974
cycle= 9 E= -482.044475986897  delta_E= -0.195  |g|= 1.07  |ddm|= 0.906
HOMO:  0.06987607247168419 LUMO:  0.08736480516563613
Fermi energy:       0.0786614213
[2.     2.     2.     2.     2.     2.     2.     2.     2.     2.
 2.     2.     2.     2.     2.     2.     2.     2.     2.     2.
 2.     2.     2.     2.     2.     2.     2.     2.     2.     2.
 2.     2.     2.     2.     2.     2.     1.9997 1.9996 1.9983 1.9983
 1.7057 0.2985]
entropy correction =  -0.008565034086330211
cycle= 10 E= -482.032581878966  delta_E= 0.0119  |g|= 0.915  |ddm|= 1.43
HOMO:  0.08962837476583425 LUMO:  0.13004696659232262
Fermi energy:       0.1120849791
[2.     2.     2.     2.     2.     2.     2.     2.     2.     2.
 2.     2.     2.     2.     2.     2.     2.     2.     2.     2.
 2.     2.     2.     2.     2.     2.     2.     2.     2.     2.
 2.     2.     2.     2.     2.     2.     2.     1.9948 1.9914 1.9824
 1.9778 0.0536]
entropy correction =  -0.002806384770374436
cycle= 11 E= -481.373880259568  delta_E= 0.659  |g|=  1.9  |ddm|= 2.31
HOMO:  0.05502647008408102 LUMO:  0.06384159091693659
Fermi energy:       0.0595089658
[2.     2.     2.     2.     2.     2.     2.     2.     2.     2.
 2.     2.     2.     2.     2.     2.     2.     2.     2.     2.
 2.     2.     2.     2.     2.     2.     2.     2.     2.     2.
 2.     2.     2.     1.9999 1.9995 1.9994 1.9993 1.9992 1.9982 1.992
 1.4205 0.592 ]
entropy correction =  -0.012547716263717595
cycle= 12 E= -482.271816529047  delta_E= -0.898  |g|= 0.277  |ddm|= 1.34
HOMO:  0.05643860956949411 LUMO:  0.0779670828717005
Fermi energy:       0.0675524747
[2.     2.     2.     2.     2.     2.     2.     2.     2.     2.
 2.     2.     2.     2.     2.     2.     2.     2.     2.     2.
 2.     2.     2.     2.     2.     2.     2.     2.     2.     2.
 2.     2.     2.     2.     2.     2.     1.9977 1.9957 1.995  1.9855
 1.8046 0.2215]
entropy correction =  -0.007530677339494407
cycle= 13 E= -482.06020834172  delta_E= 0.212  |g|= 0.773  |ddm|= 1.43
HOMO:  0.056178216619897484 LUMO:  0.06568034714079417
Fermi energy:       0.0610293925
[2.     2.     2.     2.     2.     2.     2.     2.     2.     2.
 2.     2.     2.     2.     2.     2.     2.     2.     2.     2.
 2.     2.     2.     2.     2.     2.     2.     2.     2.     2.
 2.     2.     1.9999 1.9998 1.9994 1.9992 1.9992 1.999  1.9978 1.9895
 1.4503 0.5658]
entropy correction =  -0.012402978265253113
cycle= 14 E= -482.267546249225  delta_E= -0.207  |g|= 0.281  |ddm|= 0.726
HOMO:  0.059301125958855845 LUMO:  0.0669569825211558
Fermi energy:       0.0631998465
[2.     2.     2.     2.     2.     2.     2.     2.     2.     2.
 2.     2.     2.     2.     2.     2.     2.     2.     2.     2.
 2.     2.     2.     2.     2.     2.     2.     2.     2.     2.
 2.     2.     1.9999 1.9998 1.9994 1.9994 1.9994 1.9993 1.9984 1.9921
 1.3712 0.641 ]
entropy correction =  -0.012948192689161751
cycle= 15 E= -482.288830977624  delta_E= -0.0213  |g|= 0.142  |ddm|= 0.204
HOMO:  0.06033518957805317 LUMO:  0.06854982971598131
Fermi energy:       0.0644944493
[2.     2.     2.     2.     2.     2.     2.     2.     2.     2.
 2.     2.     2.     2.     2.     2.     2.     2.     2.     2.
 2.     2.     2.     2.     2.     2.     2.     2.     2.     2.
 2.     2.     2.     1.9998 1.9996 1.9995 1.9994 1.9994 1.9988 1.9946
 1.3935 0.6153]
entropy correction =  -0.01264997950108969
cycle= 16 E= -482.286904601477  delta_E= 0.00193  |g|= 0.167  |ddm|= 0.0792
HOMO:  0.06025941724395082 LUMO:  0.06764775013766355
Fermi energy:       0.0640073156
[2.     2.     2.     2.     2.     2.     2.     2.     2.     2.
 2.     2.     2.     2.     2.     2.     2.     2.     2.     2.
 2.     2.     2.     2.     2.     2.     2.     2.     2.     2.
 2.     2.     2.     1.9998 1.9996 1.9995 1.9994 1.9992 1.9991 1.9941
 1.3582 0.6512]
entropy correction =  -0.012946747451837144
cycle= 17 E= -482.29450732659  delta_E= -0.0076  |g|= 0.0877  |ddm|= 0.123
HOMO:  0.06084883359581626 LUMO:  0.06807282692648167
Fermi energy:       0.0645100754
[2.     2.     2.     2.     2.     2.     2.     2.     2.     2.
 2.     2.     2.     2.     2.     2.     2.     2.     2.     2.
 2.     2.     2.     2.     2.     2.     2.     2.     2.     2.
 2.     2.     2.     1.9998 1.9996 1.9995 1.9995 1.9993 1.9991 1.9946
 1.3506 0.6581]
entropy correction =  -0.012975286935841126
cycle= 18 E= -482.296571538205  delta_E= -0.00206  |g|= 0.0329  |ddm|= 0.0713
HOMO:  0.06113391112835168 LUMO:  0.06835676586176899
Fermi energy:       0.0647923579
[2.     2.     2.     2.     2.     2.     2.     2.     2.     2.
 2.     2.     2.     2.     2.     2.     2.     2.     2.     2.
 2.     2.     2.     2.     2.     2.     2.     2.     2.     2.
 2.     2.     2.     1.9998 1.9996 1.9995 1.9995 1.9993 1.9992 1.9949
 1.3504 0.6579]
entropy correction =  -0.012962825253811093
cycle= 19 E= -482.296935691003  delta_E= -0.000364  |g|= 0.0135  |ddm|= 0.0338
HOMO:  0.061197307288615575 LUMO:  0.0684303312401966
Fermi energy:       0.0648595294
[2.     2.     2.     2.     2.     2.     2.     2.     2.     2.
 2.     2.     2.     2.     2.     2.     2.     2.     2.     2.
 2.     2.     2.     2.     2.     2.     2.     2.     2.     2.
 2.     2.     2.     1.9998 1.9996 1.9995 1.9995 1.9993 1.9992 1.995
 1.3507 0.6574]
entropy correction =  -0.012951982824349392
cycle= 20 E= -482.296785655089  delta_E= 0.00015  |g|= 0.0243  |ddm|= 0.0548
HOMO:  0.06124454865502651 LUMO:  0.06844552468810643
Fermi energy:       0.0648915484
[2.     2.     2.     2.     2.     2.     2.     2.     2.     2.
 2.     2.     2.     2.     2.     2.     2.     2.     2.     2.
 2.     2.     2.     2.     2.     2.     2.     2.     2.     2.
 2.     2.     2.     1.9998 1.9996 1.9995 1.9995 1.9993 1.9992 1.9949
 1.3493 0.6588]
entropy correction =  -0.012967051103356504
cycle= 21 E= -482.297009057673  delta_E= -0.000223  |g|= 0.00164  |ddm|= 0.0331
HOMO:  0.061224146347585835 LUMO:  0.06842042778453254
Fermi energy:       0.0648688810
[2.     2.     2.     2.     2.     2.     2.     2.     2.     2.
 2.     2.     2.     2.     2.     2.     2.     2.     2.     2.
 2.     2.     2.     2.     2.     2.     2.     2.     2.     2.
 2.     2.     2.     1.9998 1.9996 1.9995 1.9995 1.9993 1.9992 1.9949
 1.3491 0.6591]
entropy correction =  -0.012969079620105827
cycle= 22 E= -482.297010234358  delta_E= -1.18e-06  |g|= 0.000475  |ddm|= 0.0031
HOMO:  0.061216535871210766 LUMO:  0.06841620980249923
Fermi energy:       0.0648628034
[2.     2.     2.     2.     2.     2.     2.     2.     2.     2.
 2.     2.     2.     2.     2.     2.     2.     2.     2.     2.
 2.     2.     2.     2.     2.     2.     2.     2.     2.     2.
 2.     2.     2.     1.9998 1.9996 1.9995 1.9995 1.9993 1.9992 1.9949
 1.3493 0.6589]
entropy correction =  -0.012967028929390405
cycle= 23 E= -482.297010284206  delta_E= -4.98e-08  |g|= 0.000306  |ddm|= 0.000873
HOMO:  0.061212172486334954 LUMO:  0.06841131151262314
Fermi energy:       0.0648582839
[2.     2.     2.     2.     2.     2.     2.     2.     2.     2.
 2.     2.     2.     2.     2.     2.     2.     2.     2.     2.
 2.     2.     2.     2.     2.     2.     2.     2.     2.     2.
 2.     2.     2.     1.9998 1.9996 1.9995 1.9995 1.9993 1.9992 1.9949
 1.3493 0.6589]
entropy correction =  -0.012967844874169066
cycle= 24 E= -482.29701028794  delta_E= -3.73e-09  |g|= 0.000268  |ddm|= 0.000349
HOMO:  0.061211471374288264 LUMO:  0.06841074844297577
Fermi energy:       0.0648576491
[2.     2.     2.     2.     2.     2.     2.     2.     2.     2.
 2.     2.     2.     2.     2.     2.     2.     2.     2.     2.
 2.     2.     2.     2.     2.     2.     2.     2.     2.     2.
 2.     2.     2.     1.9998 1.9996 1.9995 1.9995 1.9993 1.9992 1.9949
 1.3493 0.6589]
entropy correction =  -0.012967784457152307
cycle= 25 E= -482.297010314493  delta_E= -2.66e-08  |g|= 2.89e-05  |ddm|= 0.000432
HOMO:  0.06121108351579924 LUMO:  0.06841037897365632
Fermi energy:       0.0648572733
[2.     2.     2.     2.     2.     2.     2.     2.     2.     2.
 2.     2.     2.     2.     2.     2.     2.     2.     2.     2.
 2.     2.     2.     2.     2.     2.     2.     2.     2.     2.
 2.     2.     2.     1.9998 1.9996 1.9995 1.9995 1.9993 1.9992 1.9949
 1.3493 0.6589]
entropy correction =  -0.012967794882221977
cycle= 26 E= -482.297010314761  delta_E= -2.68e-10  |g|= 6.77e-06  |ddm|= 3.23e-05
HOMO:  0.06121112483110283 LUMO:  0.06841041305910303
Fermi energy:       0.0648573123
[2.     2.     2.     2.     2.     2.     2.     2.     2.     2.
 2.     2.     2.     2.     2.     2.     2.     2.     2.     2.
 2.     2.     2.     2.     2.     2.     2.     2.     2.     2.
 2.     2.     2.     1.9998 1.9996 1.9995 1.9995 1.9993 1.9992 1.9949
 1.3493 0.6589]
entropy correction =  -0.012967804444702143
Extra cycle  E= -482.297010308465  delta_E= 6.3e-09  |g|= 0.000137  |ddm|= 0.000194
converged SCF energy = -482.297010308465
#INFO: **** input file is /tigress/xingz/pydmfet/examples/research/proj/Cu2/dmfet/Cu2.py ****
from pydmfet import locints, sdmfet, oep, tools, dfet_ao, proj_ao
from pydmfet.dfet_ao import dfet
from pydmfet.qcwrap.pyscf_rks_ao import rks_ao
from pyscf import gto, scf,dft, ao2mo,cc
import numpy as np
from pyscf.tools import molden, cubegen
import copy,time
from pydmfet.tools.sym import h_lattice_sym_tab
import time

t0 = (time.clock(), time.time())


bas = 'lanl2dz'
ecp = 'lanl2dz'
temp = 0.005


mol = gto.Mole()
mol.atom = open('Cu2.xyz').read()
mol.basis = bas
mol.ecp = ecp
mol.charge = -2
mol.build(max_memory = 16000, verbose=4)

mf = rks_ao(mol,smear_sigma = temp)
mf.xc = 'pbe,pbe'
mf.max_cycle = 50
mf.scf(dm0=None)


natoms = mol.natm
impAtom = np.zeros([natoms], dtype=int)
for i in range(2):
    impAtom[i] = 1

ghost_frag = 1-impAtom
ghost_env = 1-ghost_frag

mol_frag = gto.Mole()
mol_frag.atom = tools.add_ghost(mol.atom, ghost_frag)
mol_frag.basis = bas
mol_frag.ecp = ecp
mol_frag.charge = 4
mol_frag.build(max_memory = 16000,verbose = 4)

mol_env = gto.Mole()
mol_env.atom = tools.add_ghost(mol.atom, ghost_env)
mol_env.basis =  bas
mol_env.ecp = ecp
mol_env.charge = -6
mol_env.build(max_memory = 16000,verbose = 4)

Ne_frag = 34
Ne_env = 48

boundary_atoms = None
boundary_atoms2 =None

umat = None
umat = np.load("umat.npy")

params = oep.OEPparams(algorithm = 'leastsq', opt_method = 'L-BFGS-B', diffP_tol=1e-3, outer_maxit = 20)
params.options['ftol'] = 1e-9
params.options['gtol'] = 1e-3
params.options['maxiter'] = 100
params.options['svd_thresh'] = 1e-2

theDMFET = dfet.DFET(mf, mol_frag, mol_env,Ne_frag,Ne_env,\
                     boundary_atoms=boundary_atoms, boundary_atoms2=boundary_atoms2,umat = umat,\
                     oep_params=params, smear_sigma=temp, ecw_method = 'hf',mf_method = mf.xc, plot_dens=True,\
                     scf_max_cycle = 200)

umat = theDMFET.embedding_potential()

t1 = tools.timer("total calc time", t0)
#INFO: ******************** input file end ********************


System: uname_result(system='Linux', node='tiger-h25c2n24', release='3.10.0-957.27.2.el7.x86_64', version='#1 SMP Tue Jul 30 11:12:20 EDT 2019', machine='x86_64', processor='x86_64')  Threads 40
Python 3.7.0 (default, Jun 28 2018, 13:15:42) 
[GCC 7.2.0]
numpy 1.16.4  scipy 1.4.0.dev0+0f78e0f
Date: Sat Sep  7 20:43:19 2019
PySCF version 1.5
PySCF path  /home/xingz/.local/lib/python3.7/site-packages/pyscf

[CONFIG] conf_file None
[INPUT] verbose = 4
[INPUT] num. atoms = 8
[INPUT] num. electrons = 34
[INPUT] charge = 4
[INPUT] spin (= nelec alpha-beta = 2S) = 0
[INPUT] symmetry False subgroup None
[INPUT] Mole.unit = angstrom
[INPUT]  1 Cu    -0.441980000000   1.042360000000  -0.035730000000 AA   -0.835221152535   1.969774923202  -0.067519914431 Bohr
[INPUT]  2 Cu     2.942440000000   1.248890000000   0.035730000000 AA    5.560405737965   2.360060059708   0.067519914431 Bohr
[INPUT]  3 GHOST-Cl  -1.897990000000  -0.682570000000   0.075050000000 AA   -3.586681287163  -1.289870360844   0.141823945649 Bohr
[INPUT]  4 GHOST-Cl  -2.090880000000   2.577820000000  -0.212080000000 AA   -3.951190559331   4.871373798426  -0.400773116498 Bohr
[INPUT]  5 GHOST-Cl   1.158810000000   2.690810000000  -0.136080000000 AA    2.189833530407   5.084893953241  -0.257153931031 Bohr
[INPUT]  6 GHOST-Cl   1.341650000000  -0.399560000000   0.136080000000 AA    2.535351055023  -0.755058970331   0.257153931031 Bohr
[INPUT]  7 GHOST-Cl   4.398440000000   2.973820000000  -0.075050000000 AA    8.311846975332   5.619705343754  -0.141823945649 Bohr
[INPUT]  8 GHOST-Cl   4.591340000000  -0.286580000000   0.212080000000 AA    8.676375144761  -0.541557712778   0.400773116498 Bohr

nuclear repulsion = 56.3275059639967
number of shells = 38
number of NR pGTOs = 162
number of NR cGTOs = 92
basis = lanl2dz
ecp = lanl2dz
CPU time:       597.84
#INFO: **** input file is /tigress/xingz/pydmfet/examples/research/proj/Cu2/dmfet/Cu2.py ****
from pydmfet import locints, sdmfet, oep, tools, dfet_ao, proj_ao
from pydmfet.dfet_ao import dfet
from pydmfet.qcwrap.pyscf_rks_ao import rks_ao
from pyscf import gto, scf,dft, ao2mo,cc
import numpy as np
from pyscf.tools import molden, cubegen
import copy,time
from pydmfet.tools.sym import h_lattice_sym_tab
import time

t0 = (time.clock(), time.time())


bas = 'lanl2dz'
ecp = 'lanl2dz'
temp = 0.005


mol = gto.Mole()
mol.atom = open('Cu2.xyz').read()
mol.basis = bas
mol.ecp = ecp
mol.charge = -2
mol.build(max_memory = 16000, verbose=4)

mf = rks_ao(mol,smear_sigma = temp)
mf.xc = 'pbe,pbe'
mf.max_cycle = 50
mf.scf(dm0=None)


natoms = mol.natm
impAtom = np.zeros([natoms], dtype=int)
for i in range(2):
    impAtom[i] = 1

ghost_frag = 1-impAtom
ghost_env = 1-ghost_frag

mol_frag = gto.Mole()
mol_frag.atom = tools.add_ghost(mol.atom, ghost_frag)
mol_frag.basis = bas
mol_frag.ecp = ecp
mol_frag.charge = 4
mol_frag.build(max_memory = 16000,verbose = 4)

mol_env = gto.Mole()
mol_env.atom = tools.add_ghost(mol.atom, ghost_env)
mol_env.basis =  bas
mol_env.ecp = ecp
mol_env.charge = -6
mol_env.build(max_memory = 16000,verbose = 4)

Ne_frag = 34
Ne_env = 48

boundary_atoms = None
boundary_atoms2 =None

umat = None
umat = np.load("umat.npy")

params = oep.OEPparams(algorithm = 'leastsq', opt_method = 'L-BFGS-B', diffP_tol=1e-3, outer_maxit = 20)
params.options['ftol'] = 1e-9
params.options['gtol'] = 1e-3
params.options['maxiter'] = 100
params.options['svd_thresh'] = 1e-2

theDMFET = dfet.DFET(mf, mol_frag, mol_env,Ne_frag,Ne_env,\
                     boundary_atoms=boundary_atoms, boundary_atoms2=boundary_atoms2,umat = umat,\
                     oep_params=params, smear_sigma=temp, ecw_method = 'hf',mf_method = mf.xc, plot_dens=True,\
                     scf_max_cycle = 200)

umat = theDMFET.embedding_potential()

t1 = tools.timer("total calc time", t0)
#INFO: ******************** input file end ********************


System: uname_result(system='Linux', node='tiger-h25c2n24', release='3.10.0-957.27.2.el7.x86_64', version='#1 SMP Tue Jul 30 11:12:20 EDT 2019', machine='x86_64', processor='x86_64')  Threads 40
Python 3.7.0 (default, Jun 28 2018, 13:15:42) 
[GCC 7.2.0]
numpy 1.16.4  scipy 1.4.0.dev0+0f78e0f
Date: Sat Sep  7 20:43:19 2019
PySCF version 1.5
PySCF path  /home/xingz/.local/lib/python3.7/site-packages/pyscf

[CONFIG] conf_file None
[INPUT] verbose = 4
[INPUT] num. atoms = 8
[INPUT] num. electrons = 48
[INPUT] charge = -6
[INPUT] spin (= nelec alpha-beta = 2S) = 0
[INPUT] symmetry False subgroup None
[INPUT] Mole.unit = angstrom
[INPUT]  1 GHOST-Cu  -0.441980000000   1.042360000000  -0.035730000000 AA   -0.835221152535   1.969774923202  -0.067519914431 Bohr
[INPUT]  2 GHOST-Cu   2.942440000000   1.248890000000   0.035730000000 AA    5.560405737965   2.360060059708   0.067519914431 Bohr
[INPUT]  3 Cl    -1.897990000000  -0.682570000000   0.075050000000 AA   -3.586681287163  -1.289870360844   0.141823945649 Bohr
[INPUT]  4 Cl    -2.090880000000   2.577820000000  -0.212080000000 AA   -3.951190559331   4.871373798426  -0.400773116498 Bohr
[INPUT]  5 Cl     1.158810000000   2.690810000000  -0.136080000000 AA    2.189833530407   5.084893953241  -0.257153931031 Bohr
[INPUT]  6 Cl     1.341650000000  -0.399560000000   0.136080000000 AA    2.535351055023  -0.755058970331   0.257153931031 Bohr
[INPUT]  7 Cl     4.398440000000   2.973820000000  -0.075050000000 AA    8.311846975332   5.619705343754  -0.141823945649 Bohr
[INPUT]  8 Cl     4.591340000000  -0.286580000000   0.212080000000 AA    8.676375144761  -0.541557712778   0.400773116498 Bohr

nuclear repulsion = 93.9042733852809
number of shells = 38
number of NR pGTOs = 162
number of NR cGTOs = 92
basis = lanl2dz
ecp = lanl2dz
CPU time:       598.25


******** <class 'pydmfet.dfet_ao.scf.EmbedSCF'> flags ********
method = EmbedSCF-RKS-RHF
initial guess = minao
damping factor = 0
level shift factor = 0
DIIS = <class 'pyscf.scf.diis.CDIIS'>
DIIS start cycle = 1
DIIS space = 8
SCF tol = 1e-09
SCF gradient tol = None
max. SCF cycles = 200
direct_scf = False
chkfile to save SCF result = /tmp/tmpw4ik5kzs
max_memory 16000 MB (current use 506 MB)
XC functionals = pbe,pbe
small_rho_cutoff = 1e-07
radial grids: 
    Treutler-Ahlrichs (JCP 102, 346 (M4)) radial grids
    
becke partition: Becke, JCP, 88, 2547 (1988)
pruning grids: <function nwchem_prune at 0x2b44741f3400>
grids dens level: 3
symmetrized grids: False
atomic radii adjust function: <function treutler_atomic_radii_adjust at 0x2b44741f3378>
Set gradient conv threshold to 3.16228e-05
tot grids = 120648
init E= -387.472096726985
HOMO: 0.19551338502806886 LUMO: 0.20535706064538709
mo_energy:
[-2.6606 -2.6567 -1.2717 -1.2695 -1.2688 -1.268  -1.2625 -1.2624 -0.0848
 -0.0572 -0.0174  0.009   0.0427  0.064   0.0656  0.1051  0.1955  0.2054
  0.212   0.2226  0.2259  0.2874]
e_fermi =  0.19932383307898072
[2.    2.    2.    2.    2.    2.    2.    2.    2.    2.    2.    2.
 2.    2.    2.    2.    1.364 0.461 0.147 0.019 0.01 ]
entropy correction =  -0.015122652578552732
cycle= 1 E= -327.205308716663  delta_E= 60.3  |g|= 12.4  |ddm|= 7.52
HOMO: -8.404639959915867 LUMO: -8.402721593925635
mo_energy:
[-12.763 -12.759 -11.121 -11.117 -11.11  -11.108 -11.096 -11.095  -8.431
  -8.429  -8.428  -8.427  -8.427  -8.422  -8.422  -8.421  -8.405  -8.403
  -3.086  -3.08   -2.452  -2.341]
e_fermi =  -8.40269975560499
[2.    2.    2.    2.    2.    2.    2.    2.    1.993 1.99  1.987 1.986
 1.985 1.958 1.957 1.95  1.192 1.002]
entropy correction =  -0.018698830329391687
cycle= 2 E= -384.913898924826  delta_E= -57.7  |g|= 4.21  |ddm|= 7.66
HOMO: -2.160216824560918 LUMO: -2.150111604372343
mo_energy:
[-6.162 -6.145 -4.734 -4.73  -4.716 -4.713 -4.665 -4.648 -2.197 -2.188
 -2.182 -2.178 -2.174 -2.168 -2.164 -2.163 -2.16  -2.15  -1.471 -1.417
 -1.099 -1.054]
e_fermi =  -2.152064481637875
[2.    2.    2.    2.    2.    2.    2.    2.    2.    1.998 1.995 1.988
 1.976 1.92  1.834 1.808 1.672 0.807]
entropy correction =  -0.020157532540893888
cycle= 3 E= -388.830162619282  delta_E= -3.92  |g|= 1.55  |ddm|= 3.35
HOMO: -1.080110977036161 LUMO: -1.0733122001409348
mo_energy:
[-6.529 -5.129 -5.038 -5.011 -4.898 -3.476 -3.465 -3.456 -2.548 -2.538
 -2.524 -2.443 -2.432 -1.471 -1.119 -1.089 -1.08  -1.073 -1.055 -1.046
 -1.02  -0.977]
e_fermi =  -1.0760875505587368
[2.    2.    2.    2.    2.    2.    2.    2.    2.    2.    2.    2.
 2.    2.    2.    1.852 1.382 0.729 0.032 0.005]
entropy correction =  -0.01638785595352699
cycle= 4 E= -374.67521127665  delta_E= 14.2  |g|= 8.48  |ddm|= 4.19
HOMO: -1.3485136144616374 LUMO: -1.3271814158522925
mo_energy:
[-6.123 -5.237 -4.729 -4.642 -4.616 -3.799 -3.798 -3.796 -2.173 -2.162
 -2.149 -2.072 -2.062 -1.365 -1.351 -1.351 -1.349 -1.327 -1.327 -1.115
 -0.95  -0.944]
e_fermi =  -1.3374628579241499
[2.    2.    2.    2.    2.    2.    2.    2.    2.    2.    2.    2.
 2.    1.991 1.885 1.876 1.802 0.227 0.219]
entropy correction =  -0.015021557719179124
cycle= 5 E= -384.495058648838  delta_E= -9.82  |g|= 4.25  |ddm|= 2.17
HOMO: -1.4420738781910316 LUMO: -1.4346214265152524
mo_energy:
[-5.955 -5.359 -4.562 -4.479 -4.454 -3.924 -3.918 -3.907 -2.019 -2.008
 -1.995 -1.922 -1.913 -1.459 -1.453 -1.451 -1.442 -1.435 -1.297 -1.139
 -0.936 -0.919]
e_fermi =  -1.4370841058048147
[2.    2.    2.    2.    2.    2.    2.    2.    2.    2.    2.    2.
 2.    1.973 1.918 1.889 1.461 0.759]
entropy correction =  -0.017032516582144396
cycle= 6 E= -388.215662433573  delta_E= -3.72  |g|= 2.43  |ddm|= 1.92
HOMO: -1.4931475506630194 LUMO: -1.4847609635787573
mo_energy:
[-5.727 -5.421 -4.332 -4.26  -4.237 -3.986 -3.98  -3.959 -1.816 -1.804
 -1.794 -1.728 -1.72  -1.5   -1.498 -1.496 -1.493 -1.485 -1.255 -1.14
 -0.916 -0.9  ]
e_fermi =  -1.4859474805703625
[2.    2.    2.    2.    2.    2.    2.    2.    2.    2.    2.    2.
 2.    1.893 1.842 1.767 1.617 0.882]
entropy correction =  -0.02020595572557756
cycle= 7 E= -388.592728854638  delta_E= -0.377  |g|= 1.88  |ddm|= 0.375
HOMO: -1.4575441942715368 LUMO: -1.4509856443391131
mo_energy:
[-5.898 -5.411 -4.454 -4.444 -4.438 -3.98  -3.961 -3.949 -1.942 -1.941
 -1.93  -1.916 -1.908 -1.501 -1.493 -1.488 -1.458 -1.451 -1.306 -1.118
 -0.937 -0.932]
e_fermi =  -1.4542461519950043
[2.    2.    2.    2.    2.    2.    2.    2.    2.    2.    2.    2.
 2.    2.    1.999 1.998 1.318 0.685]
entropy correction =  -0.012979960387823475
cycle= 8 E= -388.453484544503  delta_E= 0.139  |g|= 2.02  |ddm|= 1.82
HOMO: -1.4809149396748387 LUMO: -1.4770224102778402
mo_energy:
[-5.823 -5.416 -4.387 -4.373 -4.356 -3.989 -3.989 -3.929 -1.869 -1.867
 -1.858 -1.855 -1.848 -1.499 -1.49  -1.482 -1.481 -1.477 -1.283 -1.124
 -0.928 -0.919]
e_fermi =  -1.4759503702919925
[2.    2.    2.    2.    2.    2.    2.    2.    2.    2.    2.    2.
 2.    1.978 1.89  1.565 1.459 1.107]
entropy correction =  -0.0206694799929777
cycle= 9 E= -388.508746450134  delta_E= -0.0553  |g|= 1.93  |ddm|= 1.56
HOMO: -1.5045453062754428 LUMO: -1.4968902723850666
mo_energy:
[-5.757 -5.439 -4.324 -4.313 -4.284 -4.    -3.996 -3.982 -1.807 -1.806
 -1.797 -1.796 -1.793 -1.518 -1.514 -1.514 -1.505 -1.497 -1.261 -1.135
 -0.921 -0.907]
e_fermi =  -1.4992712957591883
[2.    2.    2.    2.    2.    2.    2.    2.    2.    2.    2.    2.
 2.    1.954 1.901 1.896 1.483 0.766]
entropy correction =  -0.017488497547605612
cycle= 10 E= -388.584224292917  delta_E= -0.0755  |g|= 1.85  |ddm|= 1.39
HOMO: -1.5608660063358262 LUMO: -1.5525332055845162
mo_energy:
[-5.687 -5.502 -4.254 -4.246 -4.213 -4.063 -4.055 -4.048 -1.742 -1.74
 -1.733 -1.731 -1.729 -1.578 -1.574 -1.572 -1.561 -1.553 -1.237 -1.155
 -0.915 -0.895]
e_fermi =  -1.5558268701659113
[2.    2.    2.    2.    2.    2.    2.    2.    2.    2.    2.    2.
 2.    1.976 1.953 1.924 1.465 0.682]
entropy correction =  -0.015609051806155665
cycle= 11 E= -388.659325357992  delta_E= -0.0751  |g|=  1.7  |ddm|= 0.139
HOMO: -1.4966420869601094 LUMO: -1.4901314036302509
mo_energy:
[-5.734 -5.446 -4.299 -4.29  -4.264 -4.014 -4.001 -3.983 -1.785 -1.785
 -1.777 -1.775 -1.77  -1.54  -1.532 -1.523 -1.497 -1.49  -1.253 -1.139
 -0.918 -0.902]
e_fermi =  -1.4933521633234867
[2.    2.    2.    2.    2.    2.    2.    2.    2.    2.    2.    2.
 2.    2.    1.999 1.995 1.318 0.689]
entropy correction =  -0.013083951269290312
cycle= 12 E= -388.587564021554  delta_E= 0.0718  |g|= 1.83  |ddm|= 0.178
HOMO: -1.5062633379148092 LUMO: -1.4995687767470185
mo_energy:
[-5.734 -5.454 -4.3   -4.291 -4.263 -4.019 -4.008 -3.997 -1.785 -1.785
 -1.777 -1.775 -1.771 -1.545 -1.537 -1.532 -1.506 -1.5   -1.252 -1.141
 -0.918 -0.902]
e_fermi =  -1.50286903530109
[2.    2.    2.    2.    2.    2.    2.    2.    2.    2.    2.    2.
 2.    2.    1.998 1.994 1.327 0.681]
entropy correction =  -0.013107268437345203
cycle= 13 E= -388.589193646597  delta_E= -0.00163  |g|= 1.82  |ddm|= 0.164
HOMO: -1.5116631493522954 LUMO: -1.5049855378111177
mo_energy:
[-5.724 -5.46  -4.29  -4.281 -4.252 -4.024 -4.014 -4.002 -1.775 -1.775
 -1.767 -1.766 -1.762 -1.55  -1.542 -1.538 -1.512 -1.505 -1.249 -1.143
 -0.917 -0.9  ]
e_fermi =  -1.5082777464893018
[2.    2.    2.    2.    2.    2.    2.    2.    2.    2.    2.    2.
 2.    2.    1.998 1.994 1.326 0.682]
entropy correction =  -0.013109893842090152
cycle= 14 E= -388.599164376984  delta_E= -0.00997  |g|=  1.8  |ddm|= 0.0476
HOMO: -1.6253470192662478 LUMO: -1.6214687449854597
mo_energy:
[-5.587 -5.571 -4.148 -4.14  -4.139 -4.137 -4.13  -4.094 -1.665 -1.659
 -1.656 -1.637 -1.631 -1.63  -1.628 -1.627 -1.625 -1.621 -1.219 -1.169
 -0.911 -0.886]
e_fermi =  -1.61836674154969
[2.    2.    2.    2.    2.    2.    2.    2.    2.    1.999 1.999 1.956
 1.846 1.831 1.749 1.717 1.603 1.301]
entropy correction =  -0.026071571601539195
cycle= 15 E= -389.569109672009  delta_E= -0.97  |g|= 0.296  |ddm|= 0.951
HOMO: -1.5825219872547192 LUMO: -1.578825635027928
mo_energy:
[-5.584 -5.518 -4.144 -4.142 -4.124 -4.092 -4.088 -4.035 -1.662 -1.658
 -1.649 -1.629 -1.622 -1.597 -1.589 -1.583 -1.583 -1.579 -1.217 -1.163
 -0.909 -0.884]
e_fermi =  -1.5770791132897368
[2.    2.    2.    2.    2.    2.    2.    2.    2.    2.    2.    2.
 2.    1.962 1.821 1.549 1.496 1.173]
entropy correction =  -0.021747219156047156
cycle= 16 E= -388.733125523854  delta_E= 0.836  |g|= 1.56  |ddm|= 1.16
HOMO: -1.6034295308451227 LUMO: -1.5962312745730243
mo_energy:
[-5.559 -5.554 -4.13  -4.125 -4.115 -4.112 -4.097 -4.081 -1.634 -1.63
 -1.63  -1.624 -1.622 -1.621 -1.618 -1.618 -1.603 -1.596 -1.215 -1.166
 -0.909 -0.884]
e_fermi =  -1.5989551450843527
[2.    2.    2.    2.    2.    2.    2.    2.    1.998 1.996 1.996 1.987
 1.981 1.975 1.961 1.952 1.42  0.734]
entropy correction =  -0.016655788973517095
cycle= 17 E= -388.977024622503  delta_E= -0.244  |g|= 1.28  |ddm|= 1.51
HOMO: -1.5697225760930682 LUMO: -1.5691684047783392
mo_energy:
[-5.564 -5.508 -4.126 -4.117 -4.109 -4.088 -4.071 -4.028 -1.642 -1.639
 -1.631 -1.616 -1.608 -1.589 -1.582 -1.58  -1.57  -1.569 -1.215 -1.162
 -0.908 -0.883]
e_fermi =  -1.5679768873767292
[2.    2.    2.    2.    2.    2.    2.    2.    2.    2.    2.    2.
 1.999 1.972 1.896 1.842 1.173 1.119]
entropy correction =  -0.019230079180208737
cycle= 18 E= -388.732089317272  delta_E= 0.245  |g|= 1.56  |ddm|=  1.6
HOMO: -1.5975580325736873 LUMO: -1.5900258520361574
mo_energy:
[-5.557 -5.542 -4.135 -4.118 -4.105 -4.093 -4.09  -4.075 -1.632 -1.626
 -1.621 -1.619 -1.617 -1.612 -1.611 -1.61  -1.598 -1.59  -1.214 -1.165
 -0.908 -0.884]
e_fermi =  -1.5927460728965275
[2.    2.    2.    2.    2.    2.    2.    2.    1.999 1.998 1.993 1.99
 1.983 1.961 1.953 1.942 1.447 0.734]
entropy correction =  -0.01703434161099277
cycle= 19 E= -388.926073902022  delta_E= -0.194  |g|= 1.34  |ddm|= 1.61
HOMO: -1.5772300194822715 LUMO: -1.5698402711881485
mo_energy:
[-5.568 -5.523 -4.145 -4.128 -4.09  -4.083 -4.079 -4.069 -1.641 -1.636
 -1.631 -1.624 -1.623 -1.605 -1.601 -1.595 -1.577 -1.57  -1.215 -1.163
 -0.908 -0.884]
e_fermi =  -1.5733191337790204
[2.    2.    2.    2.    2.    2.    2.    2.    2.    2.    2.    2.
 2.    1.997 1.992 1.973 1.372 0.666]
entropy correction =  -0.01367435220978347
cycle= 20 E= -388.750273362347  delta_E= 0.176  |g|= 1.54  |ddm|= 0.126
HOMO: -1.5817781806408273 LUMO: -1.5742139143342344
mo_energy:
[-5.561 -5.528 -4.135 -4.123 -4.087 -4.086 -4.084 -4.075 -1.633 -1.629
 -1.624 -1.621 -1.619 -1.611 -1.606 -1.6   -1.582 -1.574 -1.214 -1.164
 -0.908 -0.884]
e_fermi =  -1.577806871743292
[2.    2.    2.    2.    2.    2.    2.    2.    2.    2.    2.    2.
 1.999 1.997 1.992 1.979 1.377 0.655]
entropy correction =  -0.013530559304383943
cycle= 21 E= -388.758773418732  delta_E= -0.0085  |g|= 1.52  |ddm|= 0.0268
HOMO: -1.5867173761230207 LUMO: -1.578903544525174
mo_energy:
[-5.537 -5.533 -4.103 -4.1   -4.092 -4.089 -4.082 -4.068 -1.617 -1.61
 -1.61  -1.608 -1.608 -1.604 -1.601 -1.596 -1.587 -1.579 -1.212 -1.163
 -0.907 -0.883]
e_fermi =  -1.5816071008095631
[2.    2.    2.    2.    2.    2.    2.    2.    1.998 1.994 1.993 1.991
 1.99  1.977 1.956 1.895 1.471 0.736]
entropy correction =  -0.017232771538663965
cycle= 22 E= -389.062165290675  delta_E= -0.303  |g|=  1.2  |ddm|= 0.18
HOMO: -1.5959922559751487 LUMO: -1.5883339063223225
mo_energy:
[-5.563 -5.534 -4.128 -4.125 -4.095 -4.095 -4.094 -4.074 -1.63  -1.629
 -1.627 -1.626 -1.619 -1.606 -1.604 -1.602 -1.596 -1.588 -1.215 -1.165
 -0.908 -0.884]
e_fermi =  -1.5899471116858979
[2.    2.    2.    2.    2.    2.    2.    2.    1.999 1.999 1.999 1.999
 1.994 1.916 1.891 1.823 1.54  0.84 ]
entropy correction =  -0.01942008463463354
cycle= 23 E= -388.79777205202  delta_E= 0.264  |g|=  1.5  |ddm|= 0.267
HOMO: -1.595149099239995 LUMO: -1.5876238655845216
mo_energy:
[-5.591 -5.531 -4.15  -4.146 -4.137 -4.095 -4.092 -4.065 -1.667 -1.664
 -1.658 -1.639 -1.63  -1.598 -1.598 -1.597 -1.595 -1.588 -1.218 -1.165
 -0.909 -0.885]
e_fermi =  -1.5872892487286188
[2.    2.    2.    2.    2.    2.    2.    2.    2.    2.    2.    2.
 2.    1.802 1.77  1.738 1.656 1.033]
entropy correction =  -0.022208424605755374
cycle= 24 E= -388.769586098564  delta_E= 0.0282  |g|= 1.55  |ddm|= 0.265
HOMO: -1.5976306398499125 LUMO: -1.5904314963269024
mo_energy:
[-5.59  -5.533 -4.16  -4.145 -4.124 -4.098 -4.095 -4.065 -1.669 -1.667
 -1.65  -1.638 -1.63  -1.599 -1.599 -1.598 -1.598 -1.59  -1.218 -1.165
 -0.909 -0.885]
e_fermi =  -1.5892505682852072
[2.    2.    2.    2.    2.    2.    2.    2.    2.    2.    2.    2.
 1.999 1.752 1.738 1.708 1.685 1.118]
entropy correction =  -0.023038318223128646
cycle= 25 E= -388.775473415313  delta_E= -0.00589  |g|= 1.54  |ddm|= 0.108
HOMO: -1.586444997020814 LUMO: -1.5830220693820418
mo_energy:
[-5.599 -5.523 -4.165 -4.153 -4.135 -4.091 -4.085 -4.054 -1.675 -1.673
 -1.659 -1.646 -1.638 -1.593 -1.592 -1.587 -1.586 -1.583 -1.219 -1.163
 -0.909 -0.886]
e_fermi =  -1.580620497320657
[2.    2.    2.    2.    2.    2.    2.    2.    2.    2.    2.    2.
 2.    1.85  1.811 1.579 1.524 1.236]
entropy correction =  -0.023078380249395358
cycle= 26 E= -388.759196833672  delta_E= 0.0163  |g|= 1.57  |ddm|= 0.283
HOMO: -1.563182873139233 LUMO: -1.5554397870013024
mo_energy:
[-5.536 -5.533 -4.157 -4.11  -4.104 -4.08  -4.076 -3.999 -1.641 -1.63
 -1.621 -1.618 -1.605 -1.596 -1.591 -1.585 -1.563 -1.555 -1.214 -1.163
 -0.908 -0.884]
e_fermi =  -1.5592162906085634
[2.    2.    2.    2.    2.    2.    2.    2.    2.    2.    2.    2.
 2.    1.999 1.997 1.988 1.377 0.639]
entropy correction =  -0.013012225650283354
cycle= 27 E= -388.781172971039  delta_E= -0.022  |g|= 1.41  |ddm|= 1.17
HOMO: -1.5497758401301538 LUMO: -1.546460920545282
mo_energy:
[-5.657 -5.488 -4.263 -4.224 -4.132 -4.069 -4.049 -4.01  -1.741 -1.729
 -1.704 -1.679 -1.67  -1.574 -1.569 -1.562 -1.55  -1.546 -1.225 -1.16
 -0.912 -0.89 ]
e_fermi =  -1.5473781892184402
[2.    2.    2.    2.    2.    2.    2.    2.    2.    2.    2.    2.
 2.    1.989 1.972 1.895 1.235 0.909]
entropy correction =  -0.016671129323397076
cycle= 28 E= -388.618868781481  delta_E= 0.162  |g|= 1.76  |ddm|= 1.76
HOMO: -1.5862147474600605 LUMO: -1.5807738692789506
mo_energy:
[-5.58  -5.527 -4.159 -4.139 -4.1   -4.093 -4.087 -4.061 -1.65  -1.645
 -1.641 -1.634 -1.631 -1.604 -1.602 -1.595 -1.586 -1.581 -1.217 -1.164
 -0.909 -0.885]
e_fermi =  -1.5822890453722767
[2.    2.    2.    2.    2.    2.    2.    2.    2.    2.    2.    2.
 2.    1.977 1.959 1.841 1.374 0.85 ]
entropy correction =  -0.017453235078344426
cycle= 29 E= -388.745769183997  delta_E= -0.127  |g|= 1.55  |ddm|= 1.46
HOMO: -1.6076556409095206 LUMO: -1.6044262388922195
mo_energy:
[-5.565 -5.551 -4.142 -4.127 -4.125 -4.112 -4.084 -4.075 -1.635 -1.629
 -1.627 -1.627 -1.621 -1.62  -1.617 -1.617 -1.608 -1.604 -1.216 -1.166
 -0.91  -0.885]
e_fermi =  -1.6036920834741268
[2.    2.    2.    2.    2.    2.    2.    2.    1.996 1.989 1.981 1.98
 1.94  1.921 1.875 1.868 1.377 1.073]
entropy correction =  -0.02247071705641311
cycle= 30 E= -389.116323821888  delta_E= -0.371  |g|= 1.13  |ddm|= 1.29
HOMO: -1.5924913722162872 LUMO: -1.5829706985064906
mo_energy:
[-5.587 -5.538 -4.158 -4.144 -4.115 -4.102 -4.089 -4.082 -1.664 -1.659
 -1.649 -1.635 -1.629 -1.615 -1.614 -1.604 -1.592 -1.583 -1.217 -1.165
 -0.909 -0.885]
e_fermi =  -1.5871679966588939
[2.    2.    2.    2.    2.    2.    2.    2.    2.    2.    2.    2.
 1.999 1.992 1.99  1.928 1.487 0.603]
entropy correction =  -0.013968537783728849
cycle= 31 E= -388.748459631515  delta_E= 0.368  |g|= 1.53  |ddm|= 1.63
HOMO: -1.5617001653909253 LUMO: -1.5517676604820396
mo_energy:
[-5.596 -5.509 -4.17  -4.155 -4.121 -4.08  -4.067 -4.042 -1.675 -1.67
 -1.658 -1.642 -1.637 -1.597 -1.596 -1.575 -1.562 -1.552 -1.219 -1.161
 -0.908 -0.885]
e_fermi =  -1.55644288826853
[2.    2.    2.    2.    2.    2.    2.    2.    2.    2.    2.    2.
 2.    1.999 1.999 1.955 1.482 0.564]
entropy correction =  -0.012794190326760092
cycle= 32 E= -388.722384504196  delta_E= 0.0261  |g|= 1.59  |ddm|= 0.216
HOMO: -1.5637994283477896 LUMO: -1.552913537903124
mo_energy:
[-5.6   -5.512 -4.173 -4.158 -4.125 -4.083 -4.071 -4.043 -1.677 -1.673
 -1.66  -1.645 -1.64  -1.6   -1.6   -1.577 -1.564 -1.553 -1.219 -1.162
 -0.909 -0.885]
e_fermi =  -1.5580399938343459
[2.    2.    2.    2.    2.    2.    2.    2.    2.    2.    2.    2.
 2.    2.    2.    1.953 1.52  0.528]
entropy correction =  -0.012436955598772172
cycle= 33 E= -388.721218725337  delta_E= 0.00117  |g|= 1.59  |ddm|= 0.0762
HOMO: -1.5720069466108875 LUMO: -1.5651742064442113
mo_energy:
[-5.597 -5.519 -4.168 -4.156 -4.125 -4.088 -4.07  -4.06  -1.673 -1.669
 -1.658 -1.645 -1.64  -1.602 -1.599 -1.587 -1.572 -1.565 -1.219 -1.163
 -0.909 -0.886]
e_fermi =  -1.5683123332483881
[2.    2.    2.    2.    2.    2.    2.    2.    2.    2.    2.    2.
 2.    1.998 1.996 1.957 1.354 0.696]
entropy correction =  -0.014037825073173114
cycle= 34 E= -388.723635267747  delta_E= -0.00242  |g|= 1.58  |ddm|= 0.583
HOMO: -1.5844778362814032 LUMO: -1.5758168060072522
mo_energy:
[-5.594 -5.528 -4.165 -4.153 -4.121 -4.095 -4.076 -4.074 -1.67  -1.666
 -1.655 -1.641 -1.636 -1.606 -1.604 -1.594 -1.584 -1.576 -1.218 -1.164
 -0.909 -0.885]
e_fermi =  -1.5794244170485117
[2.    2.    2.    2.    2.    2.    2.    2.    2.    2.    2.    2.
 2.    1.989 1.985 1.905 1.466 0.654]
entropy correction =  -0.014801298518952741
cycle= 35 E= -388.736683300446  delta_E= -0.013  |g|= 1.56  |ddm|= 0.187
HOMO: -1.5684843232714454 LUMO: -1.5665778329500155
mo_energy:
[-5.614 -5.506 -4.187 -4.173 -4.138 -4.079 -4.067 -4.034 -1.69  -1.686
 -1.673 -1.658 -1.652 -1.579 -1.577 -1.572 -1.568 -1.567 -1.222 -1.16
 -0.91  -0.887]
e_fermi =  -1.5644810271120397
[2.    2.    2.    2.    2.    2.    2.    2.    2.    2.    2.    2.
 2.    1.905 1.86  1.648 1.38  1.207]
entropy correction =  -0.022001920126799614
cycle= 36 E= -388.724990621075  delta_E= 0.0117  |g|= 1.61  |ddm|= 0.907
HOMO: -1.5838885052091525 LUMO: -1.579483293555077
mo_energy:
[-5.591 -5.53  -4.159 -4.15  -4.121 -4.098 -4.081 -4.071 -1.664 -1.661
 -1.651 -1.641 -1.636 -1.609 -1.607 -1.595 -1.584 -1.579 -1.218 -1.165
 -0.91  -0.886]
e_fermi =  -1.5809731785357666
[2.    2.    2.    2.    2.    2.    2.    2.    2.    2.    2.    2.
 2.    1.993 1.989 1.882 1.284 0.852]
entropy correction =  -0.016158861860744254
cycle= 37 E= -388.738707670425  delta_E= -0.0137  |g|= 1.56  |ddm|= 0.99
HOMO: -1.5844087182163555 LUMO: -1.5787069422070086
mo_energy:
[-5.586 -5.529 -4.165 -4.146 -4.105 -4.096 -4.077 -4.076 -1.671 -1.666
 -1.647 -1.627 -1.622 -1.608 -1.605 -1.597 -1.584 -1.579 -1.217 -1.165
 -0.909 -0.885]
e_fermi =  -1.5809815837460386
[2.    2.    2.    2.    2.    2.    2.    2.    2.    2.    2.    2.
 1.999 1.991 1.984 1.92  1.33  0.776]
entropy correction =  -0.015535998517253269
cycle= 38 E= -388.742173875281  delta_E= -0.00347  |g|= 1.55  |ddm|= 0.256
HOMO: -0.9666167619474648 LUMO: -0.9490267796479825
mo_energy:
[-6.329 -4.936 -4.884 -4.772 -4.713 -3.293 -3.284 -3.273 -2.369 -2.351
 -2.312 -2.275 -2.262 -1.423 -1.056 -1.003 -0.967 -0.949 -0.922 -0.919
 -0.913 -0.912]
e_fermi =  -0.9578470878871226
[2.000e+00 2.000e+00 2.000e+00 2.000e+00 2.000e+00 2.000e+00 2.000e+00
 2.000e+00 2.000e+00 2.000e+00 2.000e+00 2.000e+00 2.000e+00 2.000e+00
 2.000e+00 2.000e+00 1.705e+00 2.926e-01 1.420e-03]
entropy correction =  -0.008479927496996616
cycle= 39 E= -356.600303331551  delta_E= 32.1  |g|=   13  |ddm|= 5.23
HOMO: -1.2651033778429084 LUMO: -1.2564942212704753
mo_energy:
[-6.162 -5.146 -4.76  -4.72  -4.623 -3.716 -3.708 -3.695 -2.203 -2.187
 -2.157 -2.128 -2.117 -1.354 -1.279 -1.268 -1.265 -1.256 -1.253 -1.086
 -0.956 -0.947]
e_fermi =  -1.260639522020451
[2.    2.    2.    2.    2.    2.    2.    2.    2.    2.    2.    2.
 2.    2.    1.953 1.637 1.419 0.608 0.383]
entropy correction =  -0.022909532737466504
cycle= 40 E= -382.417144404815  delta_E= -25.8  |g|= 5.22  |ddm|= 3.25
HOMO: -1.565440028225959 LUMO: -1.564929012889927
mo_energy:
[-5.804 -5.501 -4.368 -4.364 -4.321 -4.07  -4.068 -4.026 -1.843 -1.836
 -1.834 -1.831 -1.827 -1.576 -1.571 -1.568 -1.565 -1.565 -1.254 -1.163
 -0.926 -0.901]
e_fermi =  -1.5612530301896483
[2.    2.    2.    2.    2.    2.    2.    2.    2.    2.    2.    2.
 2.    1.9   1.745 1.608 1.396 1.352]
entropy correction =  -0.02318349528647616
cycle= 41 E= -388.523155981427  delta_E= -6.11  |g|= 1.93  |ddm|= 2.67
HOMO: -1.547724718669797 LUMO: -1.5399426020367317
mo_energy:
[-5.575 -5.482 -4.154 -4.124 -4.108 -4.049 -4.036 -4.026 -1.658 -1.65
 -1.645 -1.622 -1.617 -1.568 -1.564 -1.561 -1.548 -1.54  -1.218 -1.159
 -0.908 -0.884]
e_fermi =  -1.5432065046152255
[2.    2.    2.    2.    2.    2.    2.    2.    2.    2.    2.    2.
 2.    1.985 1.968 1.939 1.423 0.685]
entropy correction =  -0.015061652104994674
cycle= 42 E= -388.719612817846  delta_E= -0.196  |g|= 1.62  |ddm|= 1.14
HOMO: -1.596014876126094 LUMO: -1.5899418252625834
mo_energy:
[-5.553 -5.54  -4.123 -4.12  -4.114 -4.104 -4.092 -4.047 -1.631 -1.627
 -1.625 -1.62  -1.616 -1.605 -1.601 -1.598 -1.596 -1.59  -1.214 -1.164
 -0.908 -0.884]
e_fermi =  -1.5896031742289922
[2.    2.    2.    2.    2.    2.    2.    2.    2.    1.999 1.998 1.995
 1.99  1.905 1.816 1.698 1.566 1.034]
entropy correction =  -0.02200521009070415
cycle= 43 E= -389.290577436272  delta_E= -0.571  |g|= 0.879  |ddm|= 1.55
HOMO: -1.5988622346523367 LUMO: -1.5947252423063814
mo_energy:
[-5.59  -5.539 -4.156 -4.141 -4.13  -4.107 -4.101 -4.067 -1.667 -1.663
 -1.657 -1.635 -1.626 -1.607 -1.605 -1.602 -1.599 -1.595 -1.218 -1.165
 -0.909 -0.885]
e_fermi =  -1.5934886087666864
[2.    2.    2.    2.    2.    2.    2.    2.    2.    2.    2.    2.
 1.997 1.866 1.831 1.692 1.491 1.123]
entropy correction =  -0.02230383295008396
cycle= 44 E= -388.77587533385  delta_E= 0.515  |g|= 1.52  |ddm|= 1.23
HOMO: -1.6017826981877135 LUMO: -1.5971487578693166
mo_energy:
[-5.587 -5.544 -4.153 -4.138 -4.127 -4.116 -4.101 -4.074 -1.664 -1.66
 -1.654 -1.632 -1.623 -1.613 -1.611 -1.609 -1.602 -1.597 -1.217 -1.166
 -0.909 -0.885]
e_fermi =  -1.5972844039896523
[2.    2.    2.    2.    2.    2.    2.    2.    2.    2.    2.    1.998
 1.989 1.924 1.872 1.809 1.422 0.986]
entropy correction =  -0.020506312949224927
cycle= 45 E= -388.788531591332  delta_E= -0.0127  |g|= 1.49  |ddm|= 0.896
HOMO: -1.6066637428743065 LUMO: -1.598896262156572
mo_energy:
[-5.585 -5.545 -4.15  -4.136 -4.126 -4.11  -4.105 -4.08  -1.662 -1.658
 -1.653 -1.631 -1.622 -1.612 -1.611 -1.61  -1.607 -1.599 -1.217 -1.166
 -0.909 -0.885]
e_fermi =  -1.5994226318668208
[2.    2.    2.    2.    2.    2.    2.    2.    2.    2.    2.    1.997
 1.98  1.855 1.824 1.778 1.619 0.947]
entropy correction =  -0.02154514748094862
cycle= 46 E= -388.824270428262  delta_E= -0.0357  |g|= 1.47  |ddm|= 0.555
HOMO: -1.6075033402660648 LUMO: -1.6019240838220823
mo_energy:
[-5.585 -5.546 -4.151 -4.137 -4.126 -4.113 -4.108 -4.076 -1.663 -1.659
 -1.653 -1.632 -1.623 -1.612 -1.611 -1.609 -1.608 -1.602 -1.217 -1.166
 -0.909 -0.885]
e_fermi =  -1.600363257687014
[2.    2.    2.    2.    2.    2.    2.    2.    2.    2.    2.    1.996
 1.977 1.809 1.769 1.682 1.613 1.155]
entropy correction =  -0.0236209767692853
cycle= 47 E= -388.835658381972  delta_E= -0.0114  |g|= 1.46  |ddm|= 0.317
HOMO: -1.605078304065902 LUMO: -1.5973985983933383
mo_energy:
[-5.587 -5.545 -4.151 -4.139 -4.129 -4.108 -4.104 -4.081 -1.663 -1.66
 -1.654 -1.634 -1.625 -1.612 -1.611 -1.609 -1.605 -1.597 -1.217 -1.166
 -0.909 -0.885]
e_fermi =  -1.5984189582382766
[2.    2.    2.    2.    2.    2.    2.    2.    2.    2.    2.    1.999
 1.991 1.881 1.849 1.8   1.582 0.898]
entropy correction =  -0.020539256107646273
cycle= 48 E= -388.794833288762  delta_E= 0.0408  |g|=  1.5  |ddm|= 0.371
HOMO: -1.604818270375154 LUMO: -1.5973793525344713
mo_energy:
[-5.589 -5.547 -4.154 -4.14  -4.13  -4.112 -4.105 -4.084 -1.665 -1.661
 -1.656 -1.635 -1.626 -1.617 -1.616 -1.61  -1.605 -1.597 -1.218 -1.166
 -0.91  -0.885]
e_fermi =  -1.5992045779834123
[2.    2.    2.    2.    2.    2.    2.    2.    2.    2.    2.    1.998
 1.99  1.947 1.932 1.804 1.509 0.819]
entropy correction =  -0.018633302897332744
cycle= 49 E= -388.787290260519  delta_E= 0.00754  |g|=  1.5  |ddm|= 0.231
HOMO: -1.592761669820516 LUMO: -1.5900102257055488
mo_energy:
[-5.551 -5.542 -4.121 -4.105 -4.101 -4.097 -4.091 -4.086 -1.635 -1.63
 -1.624 -1.618 -1.616 -1.61  -1.6   -1.599 -1.593 -1.59  -1.214 -1.165
 -0.908 -0.883]
e_fermi =  -1.5889327248540879
[2.    2.    2.    2.    2.    2.    2.    2.    2.    1.999 1.998 1.994
 1.991 1.969 1.796 1.78  1.365 1.107]
entropy correction =  -0.021293151295193637
cycle= 50 E= -389.592375209571  delta_E= -0.805  |g|= 0.0991  |ddm|= 0.85
HOMO: -1.602611917876002 LUMO: -1.5994024119325876
mo_energy:
[-5.561 -5.545 -4.13  -4.126 -4.122 -4.113 -4.086 -4.06  -1.631 -1.626
 -1.624 -1.621 -1.621 -1.62  -1.613 -1.607 -1.603 -1.599 -1.216 -1.166
 -0.909 -0.885]
e_fermi =  -1.5984433460681473
[2.    2.    2.    2.    2.    2.    2.    2.    1.997 1.992 1.988 1.977
 1.976 1.971 1.895 1.713 1.394 1.096]
entropy correction =  -0.02193824598048682
cycle= 51 E= -388.882746979579  delta_E= 0.71  |g|= 1.37  |ddm|= 1.32
HOMO: -1.6043302849722627 LUMO: -1.6024636786627997
mo_energy:
[-5.559 -5.556 -4.142 -4.139 -4.131 -4.125 -4.062 -4.061 -1.641 -1.635
 -1.634 -1.628 -1.617 -1.616 -1.61  -1.608 -1.604 -1.602 -1.216 -1.166
 -0.91  -0.886]
e_fermi =  -1.5997280046912572
[2.    2.    2.    2.    2.    2.    2.    2.    2.    1.998 1.998 1.992
 1.938 1.924 1.787 1.665 1.43  1.267]
entropy correction =  -0.0238615127010258
cycle= 52 E= -389.538868952505  delta_E= -0.656  |g|= 0.259  |ddm|= 0.62
HOMO: -1.6065059360670255 LUMO: -1.5987046908957017
mo_energy:
[-5.554 -5.543 -4.12  -4.117 -4.109 -4.102 -4.084 -4.079 -1.622 -1.62
 -1.619 -1.617 -1.613 -1.612 -1.611 -1.61  -1.607 -1.599 -1.214 -1.165
 -0.908 -0.884]
e_fermi =  -1.5984504792084244
[2.    2.    2.    2.    2.    2.    2.    2.    1.984 1.975 1.965 1.953
 1.887 1.87  1.854 1.82  1.667 1.025]
entropy correction =  -0.02478779334535383
cycle= 53 E= -389.170575492492  delta_E= 0.368  |g|= 1.09  |ddm|= 1.13
HOMO: -1.6103886351840082 LUMO: -1.6022586305605537
mo_energy:
[-5.554 -5.546 -4.12  -4.117 -4.112 -4.107 -4.084 -4.081 -1.622 -1.62
 -1.618 -1.617 -1.614 -1.614 -1.612 -1.612 -1.61  -1.602 -1.215 -1.165
 -0.909 -0.884]
e_fermi =  -1.600891914855355
[2.    2.    2.    2.    2.    2.    2.    2.    1.972 1.957 1.942 1.924
 1.866 1.858 1.81  1.795 1.74  1.136]
entropy correction =  -0.026865662149191675
cycle= 54 E= -389.345754066039  delta_E= -0.175  |g|= 0.847  |ddm|= 0.201
HOMO: -1.6084193313237505 LUMO: -1.6007823754584087
mo_energy:
[-5.551 -5.545 -4.117 -4.114 -4.112 -4.104 -4.082 -4.08  -1.619 -1.618
 -1.617 -1.616 -1.615 -1.613 -1.611 -1.609 -1.608 -1.601 -1.214 -1.165
 -0.908 -0.884]
e_fermi =  -1.5994112049478275
[2.    2.    2.    2.    2.    2.    2.    2.    1.96  1.949 1.937 1.926
 1.912 1.884 1.828 1.751 1.717 1.136]
entropy correction =  -0.026776927082350015
cycle= 55 E= -389.403207069059  delta_E= -0.0575  |g|= 0.744  |ddm|= 0.246
HOMO: -1.6080259741731007 LUMO: -1.6013548145061358
mo_energy:
[-5.55  -5.545 -4.116 -4.112 -4.111 -4.106 -4.082 -4.08  -1.617 -1.617
 -1.616 -1.615 -1.614 -1.612 -1.612 -1.609 -1.608 -1.601 -1.214 -1.165
 -0.908 -0.884]
e_fermi =  -1.5993862008896345
[2.    2.    2.    2.    2.    2.    2.    2.    1.945 1.938 1.929 1.922
 1.892 1.863 1.856 1.762 1.698 1.194]
entropy correction =  -0.027639356458306685
cycle= 56 E= -389.480017771053  delta_E= -0.0768  |g|= 0.591  |ddm|= 0.159
HOMO: -1.608795453081763 LUMO: -1.6030603097230296
mo_energy:
[-5.551 -5.547 -4.117 -4.114 -4.113 -4.108 -4.082 -4.081 -1.618 -1.617
 -1.616 -1.616 -1.615 -1.615 -1.612 -1.611 -1.609 -1.603 -1.214 -1.165
 -0.908 -0.884]
e_fermi =  -1.6006478508344752
[2.    2.    2.    2.    2.    2.    2.    2.    1.94  1.926 1.912 1.911
 1.899 1.896 1.823 1.785 1.672 1.237]
entropy correction =  -0.028123081999113217
cycle= 57 E= -389.53086110888  delta_E= -0.0508  |g|= 0.456  |ddm|= 0.154
HOMO: -1.6087020697371346 LUMO: -1.6041435674193134
mo_energy:
[-5.551 -5.548 -4.117 -4.115 -4.113 -4.111 -4.081 -4.078 -1.619 -1.617
 -1.616 -1.616 -1.616 -1.616 -1.614 -1.609 -1.609 -1.604 -1.215 -1.165
 -0.909 -0.884]
e_fermi =  -1.600909698403896
[2.    2.    2.    2.    2.    2.    2.    2.    1.949 1.919 1.914 1.908
 1.906 1.902 1.859 1.679 1.652 1.313]
entropy correction =  -0.02839033453036203
cycle= 58 E= -389.551306334949  delta_E= -0.0204  |g|= 0.377  |ddm|= 0.419
HOMO: -1.6095879864790679 LUMO: -1.6051343074408073
mo_energy:
[-5.554 -5.548 -4.122 -4.114 -4.112 -4.109 -4.087 -4.08  -1.621 -1.621
 -1.617 -1.616 -1.616 -1.615 -1.615 -1.613 -1.61  -1.605 -1.215 -1.165
 -0.909 -0.884]
e_fermi =  -1.6021529806044044
[2.    2.    2.    2.    2.    2.    2.    2.    1.958 1.95  1.897 1.881
 1.876 1.861 1.848 1.809 1.631 1.29 ]
entropy correction =  -0.028455335042329725
cycle= 59 E= -389.554070862291  delta_E= -0.00276  |g|= 0.384  |ddm|= 0.494
HOMO: -1.6116585845779565 LUMO: -1.6077133134191206
mo_energy:
[-5.554 -5.549 -4.12  -4.117 -4.115 -4.113 -4.085 -4.08  -1.619 -1.619
 -1.617 -1.617 -1.617 -1.616 -1.615 -1.615 -1.612 -1.608 -1.215 -1.166
 -0.909 -0.884]
e_fermi =  -1.6035771909750887
[2.    2.    2.    2.    2.    2.    2.    2.    1.914 1.905 1.883 1.88
 1.873 1.847 1.829 1.81  1.669 1.392]
entropy correction =  -0.029957715266193684
cycle= 60 E= -389.586348994996  delta_E= -0.0323  |g|= 0.248  |ddm|= 0.239
HOMO: -1.6115806745484318 LUMO: -1.6076252488983942
mo_energy:
[-5.553 -5.55  -4.12  -4.116 -4.116 -4.112 -4.084 -4.081 -1.619 -1.618
 -1.617 -1.617 -1.617 -1.616 -1.616 -1.616 -1.612 -1.608 -1.215 -1.166
 -0.909 -0.884]
e_fermi =  -1.6036192037668846
[2.    2.    2.    2.    2.    2.    2.    2.    1.908 1.888 1.874 1.868
 1.866 1.856 1.85  1.847 1.662 1.38 ]
entropy correction =  -0.02994366668271294
cycle= 61 E= -389.598080715754  delta_E= -0.0117  |g|= 0.173  |ddm|= 0.0874
HOMO: -1.6104486620592113 LUMO: -1.6069603717454328
mo_energy:
[-5.553 -5.549 -4.119 -4.115 -4.115 -4.112 -4.085 -4.081 -1.617 -1.617
 -1.617 -1.617 -1.616 -1.616 -1.616 -1.616 -1.61  -1.607 -1.215 -1.166
 -0.909 -0.884]
e_fermi =  -1.6030862233314227
[2.    2.    2.    2.    2.    2.    2.    2.    1.893 1.891 1.888 1.88
 1.871 1.869 1.858 1.854 1.627 1.369]
entropy correction =  -0.029661982201560272
cycle= 62 E= -389.607402318283  delta_E= -0.00932  |g|= 0.0679  |ddm|= 0.0917
HOMO: -1.6100753696163153 LUMO: -1.6065893525407913
mo_energy:
[-5.552 -5.549 -4.118 -4.115 -4.114 -4.112 -4.083 -4.081 -1.617 -1.617
 -1.616 -1.616 -1.616 -1.616 -1.616 -1.616 -1.61  -1.607 -1.215 -1.165
 -0.909 -0.884]
e_fermi =  -1.6026766485272432
[2.    2.    2.    2.    2.    2.    2.    2.    1.889 1.887 1.88  1.876
 1.872 1.868 1.865 1.861 1.629 1.372]
entropy correction =  -0.02972520166906431
cycle= 63 E= -389.608839723102  delta_E= -0.00144  |g|= 0.0273  |ddm|= 0.0455
HOMO: -1.6102870518621113 LUMO: -1.6068083572280687
mo_energy:
[-5.552 -5.549 -4.118 -4.115 -4.114 -4.112 -4.083 -4.081 -1.617 -1.617
 -1.617 -1.616 -1.616 -1.616 -1.616 -1.616 -1.61  -1.607 -1.215 -1.165
 -0.909 -0.884]
e_fermi =  -1.6028070579405072
[2.    2.    2.    2.    2.    2.    2.    2.    1.889 1.884 1.88  1.874
 1.87  1.867 1.861 1.86  1.634 1.38 ]
entropy correction =  -0.02982617643753807
cycle= 64 E= -389.609114265094  delta_E= -0.000275  |g|= 0.00588  |ddm|= 0.0272
HOMO: -1.6102510342657481 LUMO: -1.6067765201912931
mo_energy:
[-5.552 -5.549 -4.118 -4.115 -4.114 -4.112 -4.084 -4.081 -1.617 -1.617
 -1.617 -1.616 -1.616 -1.616 -1.616 -1.616 -1.61  -1.607 -1.215 -1.165
 -0.909 -0.884]
e_fermi =  -1.6028681488116867
[2.    2.    2.    2.    2.    2.    2.    2.    1.889 1.884 1.88  1.875
 1.874 1.869 1.866 1.863 1.628 1.372]
entropy correction =  -0.02971937974515186
cycle= 65 E= -389.609133341067  delta_E= -1.91e-05  |g|= 0.00133  |ddm|= 0.0135
HOMO: -1.6102882924034618 LUMO: -1.6068119207413352
mo_energy:
[-5.552 -5.549 -4.119 -4.115 -4.114 -4.112 -4.084 -4.081 -1.617 -1.617
 -1.617 -1.616 -1.616 -1.616 -1.616 -1.616 -1.61  -1.607 -1.215 -1.165
 -0.909 -0.884]
e_fermi =  -1.6028907317988255
[2.    2.    2.    2.    2.    2.    2.    2.    1.889 1.883 1.879 1.876
 1.873 1.87  1.866 1.862 1.629 1.373]
entropy correction =  -0.0297352006314226
cycle= 66 E= -389.609131262114  delta_E= 2.08e-06  |g|= 0.00275  |ddm|= 0.00586
HOMO: -1.61029025756455 LUMO: -1.6068139229873477
mo_energy:
[-5.552 -5.549 -4.118 -4.115 -4.114 -4.112 -4.084 -4.081 -1.617 -1.617
 -1.617 -1.616 -1.616 -1.616 -1.616 -1.616 -1.61  -1.607 -1.215 -1.165
 -0.909 -0.884]
e_fermi =  -1.6028887744074238
[2.    2.    2.    2.    2.    2.    2.    2.    1.889 1.884 1.879 1.875
 1.873 1.869 1.865 1.863 1.629 1.374]
entropy correction =  -0.029739595945904248
cycle= 67 E= -389.609133687113  delta_E= -2.42e-06  |g|= 0.00173  |ddm|= 0.00418
HOMO: -1.6102667850011894 LUMO: -1.6067915063123923
mo_energy:
[-5.552 -5.549 -4.118 -4.115 -4.114 -4.112 -4.084 -4.081 -1.617 -1.617
 -1.617 -1.616 -1.616 -1.616 -1.616 -1.616 -1.61  -1.607 -1.215 -1.165
 -0.909 -0.884]
e_fermi =  -1.6028685482818574
[2.    2.    2.    2.    2.    2.    2.    2.    1.889 1.883 1.88  1.875
 1.873 1.869 1.866 1.863 1.629 1.373]
entropy correction =  -0.029736644724430192
cycle= 68 E= -389.609134752511  delta_E= -1.07e-06  |g|= 0.000459  |ddm|= 0.00135
HOMO: -1.6102693020369627 LUMO: -1.6067939304132899
mo_energy:
[-5.552 -5.549 -4.118 -4.115 -4.114 -4.112 -4.084 -4.081 -1.617 -1.617
 -1.617 -1.616 -1.616 -1.616 -1.616 -1.616 -1.61  -1.607 -1.215 -1.165
 -0.909 -0.884]
e_fermi =  -1.60286923534012
[2.    2.    2.    2.    2.    2.    2.    2.    1.889 1.883 1.88  1.875
 1.873 1.869 1.865 1.863 1.629 1.373]
entropy correction =  -0.029738737095697746
cycle= 69 E= -389.609134835245  delta_E= -8.27e-08  |g|= 0.00015  |ddm|= 0.000493
HOMO: -1.6102718882527758 LUMO: -1.6067964204279226
mo_energy:
[-5.552 -5.549 -4.118 -4.115 -4.114 -4.112 -4.084 -4.081 -1.617 -1.617
 -1.617 -1.616 -1.616 -1.616 -1.616 -1.616 -1.61  -1.607 -1.215 -1.165
 -0.909 -0.884]
e_fermi =  -1.602870953585294
[2.    2.    2.    2.    2.    2.    2.    2.    1.889 1.883 1.88  1.875
 1.873 1.869 1.865 1.863 1.629 1.374]
entropy correction =  -0.02973964287512806
cycle= 70 E= -389.609134844234  delta_E= -8.99e-09  |g|= 2.29e-05  |ddm|= 0.000224
HOMO: -1.6102736848273362 LUMO: -1.606798189585479
mo_energy:
[-5.552 -5.549 -4.118 -4.115 -4.114 -4.112 -4.084 -4.081 -1.617 -1.617
 -1.617 -1.616 -1.616 -1.616 -1.616 -1.616 -1.61  -1.607 -1.215 -1.165
 -0.909 -0.884]
e_fermi =  -1.6028726243394855
[2.    2.    2.    2.    2.    2.    2.    2.    1.889 1.883 1.88  1.875
 1.873 1.869 1.865 1.863 1.629 1.374]
entropy correction =  -0.029739777780781473
cycle= 71 E= -389.609134843162  delta_E= 1.07e-09  |g|= 2.37e-05  |ddm|= 0.000226
HOMO: -1.6102729290294007 LUMO: -1.6067974448734013
mo_energy:
[-5.552 -5.549 -4.118 -4.115 -4.114 -4.112 -4.084 -4.081 -1.617 -1.617
 -1.617 -1.616 -1.616 -1.616 -1.616 -1.616 -1.61  -1.607 -1.215 -1.165
 -0.909 -0.884]
e_fermi =  -1.602871969078307
[2.    2.    2.    2.    2.    2.    2.    2.    1.889 1.883 1.88  1.875
 1.873 1.869 1.865 1.863 1.629 1.374]
entropy correction =  -0.029739669676562372
cycle= 72 E= -389.609134844514  delta_E= -1.35e-09  |g|= 1.22e-05  |ddm|= 0.0002
HOMO: -1.610272378102558 LUMO: -1.6067969078030766
mo_energy:
[-5.552 -5.549 -4.118 -4.115 -4.114 -4.112 -4.084 -4.081 -1.617 -1.617
 -1.617 -1.616 -1.616 -1.616 -1.616 -1.616 -1.61  -1.607 -1.215 -1.165
 -0.909 -0.884]
e_fermi =  -1.6028714964662996
[2.    2.    2.    2.    2.    2.    2.    2.    1.889 1.883 1.88  1.875
 1.873 1.869 1.865 1.863 1.629 1.374]
entropy correction =  -0.029739586064314563
cycle= 73 E= -389.609134844919  delta_E= -4.05e-10  |g|= 4.92e-06  |ddm|= 7.51e-05
HOMO: -1.6102725861491594 LUMO: -1.6067969728935931
mo_energy:
[-5.552 -5.549 -4.118 -4.115 -4.114 -4.112 -4.084 -4.081 -1.617 -1.617
 -1.617 -1.616 -1.616 -1.616 -1.616 -1.616 -1.61  -1.607 -1.215 -1.165
 -0.909 -0.884]
e_fermi =  -1.6028715133676419
[2.    2.    2.    2.    2.    2.    2.    2.    1.889 1.883 1.88  1.875
 1.873 1.869 1.865 1.863 1.629 1.374]
entropy correction =  -0.029739716477399505
Extra cycle  E= -389.609134689801  delta_E= 1.55e-07  |g|= 0.000655  |ddm|= 0.000286
converged SCF energy = -389.609134689801


******** <class 'pydmfet.dfet_ao.scf.EmbedSCF'> flags ********
method = EmbedSCF-RKS-RHF
initial guess = minao
damping factor = 0
level shift factor = 0
DIIS = <class 'pyscf.scf.diis.CDIIS'>
DIIS start cycle = 1
DIIS space = 8
SCF tol = 1e-09
SCF gradient tol = None
max. SCF cycles = 200
direct_scf = False
chkfile to save SCF result = /tmp/tmp8ppot9ia
max_memory 16000 MB (current use 1031 MB)
XC functionals = pbe,pbe
small_rho_cutoff = 1e-07
radial grids: 
    Treutler-Ahlrichs (JCP 102, 346 (M4)) radial grids
    
becke partition: Becke, JCP, 88, 2547 (1988)
pruning grids: <function nwchem_prune at 0x2b44741f3400>
grids dens level: 3
symmetrized grids: False
atomic radii adjust function: <function treutler_atomic_radii_adjust at 0x2b44741f3378>
Set gradient conv threshold to 3.16228e-05
tot grids = 139880
init E= -78.9711933790697
HOMO: 0.16263354103381067 LUMO: 0.18691533664850268
mo_energy:
[-0.33  -0.315 -0.306 -0.299 -0.296 -0.272 -0.06  -0.047 -0.046 -0.034
 -0.012 -0.007  0.001  0.009  0.013  0.038  0.04   0.047  0.052  0.059
  0.062  0.066  0.099  0.163  0.187  0.212  0.266  0.271  0.277]
e_fermi =  0.1747559113793241
[2.000e+00 2.000e+00 2.000e+00 2.000e+00 2.000e+00 2.000e+00 2.000e+00
 2.000e+00 2.000e+00 2.000e+00 2.000e+00 2.000e+00 2.000e+00 2.000e+00
 2.000e+00 2.000e+00 2.000e+00 2.000e+00 2.000e+00 2.000e+00 2.000e+00
 2.000e+00 2.000e+00 1.837e+00 1.615e-01 1.104e-03]
entropy correction =  -0.005673472356766918
cycle= 1 E= -86.2659889061658  delta_E= -7.29  |g|= 2.58  |ddm|= 10.1
HOMO: 0.8160709431890089 LUMO: 0.8420346275706229
mo_energy:
[-0.155 -0.152 -0.144 -0.139  0.262  0.277  0.324  0.325  0.326  0.328
  0.335  0.339  0.341  0.341  0.407  0.414  0.427  0.487  0.726  0.729
  0.738  0.751  0.762  0.816  0.842  0.87   0.905  0.907  0.924]
e_fermi =  0.8290430738820999
[2.    2.    2.    2.    2.    2.    2.    2.    2.    2.    2.    2.
 2.    2.    2.    2.    2.    2.    2.    2.    2.    2.    2.    1.861
 0.138]
entropy correction =  -0.005064003735336744
cycle= 2 E= -87.1379208326625  delta_E= -0.872  |g|=    2  |ddm|= 6.23
HOMO: 0.8963335666871459 LUMO: 0.9011742250591763
mo_energy:
[0.225 0.228 0.238 0.241 0.411 0.428 0.648 0.65  0.651 0.656 0.662 0.665
 0.67  0.67  0.702 0.713 0.714 0.739 0.823 0.842 0.845 0.862 0.876 0.896
 0.901 0.907 0.912 0.924 0.963]
e_fermi =  0.8969705355557561
[2.    2.    2.    2.    2.    2.    2.    2.    2.    2.    2.    2.
 2.    2.    2.    2.    2.    2.    2.    2.    2.    1.998 1.971 1.064
 0.603 0.253 0.103 0.009]
entropy correction =  -0.019985618583896213
cycle= 3 E= -88.3807224051847  delta_E= -1.24  |g|= 0.244  |ddm|= 2.49
HOMO: 0.8317652329855887 LUMO: 0.8657856245245569
mo_energy:
[0.2   0.203 0.212 0.216 0.308 0.326 0.621 0.621 0.623 0.628 0.634 0.636
 0.643 0.644 0.66  0.662 0.666 0.671 0.724 0.739 0.743 0.762 0.768 0.832
 0.866 0.873 0.875 0.884 0.945]
e_fermi =  0.8479006857922772
[2.000e+00 2.000e+00 2.000e+00 2.000e+00 2.000e+00 2.000e+00 2.000e+00
 2.000e+00 2.000e+00 2.000e+00 2.000e+00 2.000e+00 2.000e+00 2.000e+00
 2.000e+00 2.000e+00 2.000e+00 2.000e+00 2.000e+00 2.000e+00 2.000e+00
 2.000e+00 2.000e+00 1.924e+00 5.440e-02 1.190e-02 8.570e-03 1.448e-03]
entropy correction =  -0.0035694424348089292
cycle= 4 E= -88.3979173659595  delta_E= -0.0172  |g|= 0.215  |ddm|= 1.28
HOMO: 0.8574242070208735 LUMO: 0.8799349598030666
mo_energy:
[0.207 0.21  0.219 0.223 0.357 0.375 0.63  0.631 0.632 0.637 0.643 0.646
 0.652 0.652 0.676 0.685 0.686 0.697 0.766 0.784 0.789 0.806 0.814 0.857
 0.88  0.887 0.89  0.892 0.952]
e_fermi =  0.8675016291485249
[2.    2.    2.    2.    2.    2.    2.    2.    2.    2.    2.    2.
 2.    2.    2.    2.    2.    2.    2.    2.    2.    2.    2.    1.765
 0.154 0.043 0.024 0.015]
entropy correction =  -0.008455783575143158
cycle= 5 E= -88.4149621838358  delta_E= -0.017  |g|= 0.0656  |ddm|= 0.234
HOMO: 0.8729476436814952 LUMO: 0.8875594356964621
mo_energy:
[0.217 0.22  0.229 0.233 0.373 0.39  0.64  0.641 0.642 0.647 0.654 0.656
 0.662 0.662 0.689 0.699 0.7   0.713 0.782 0.8   0.807 0.824 0.834 0.873
 0.888 0.893 0.897 0.898 0.957]
e_fermi =  0.8786576937687053
[2.    2.    2.    2.    2.    2.    2.    2.    2.    2.    2.    2.
 2.    2.    2.    2.    2.    2.    2.    2.    2.    2.    2.    1.516
 0.289 0.111 0.045 0.039]
entropy correction =  -0.013865994153500238
cycle= 6 E= -88.4173654783278  delta_E= -0.0024  |g|= 0.0183  |ddm|= 0.21
HOMO: 0.8695791579829363 LUMO: 0.8856568647224986
mo_energy:
[0.213 0.216 0.225 0.229 0.372 0.39  0.637 0.638 0.639 0.644 0.65  0.652
 0.658 0.659 0.685 0.695 0.695 0.71  0.782 0.8   0.806 0.823 0.833 0.87
 0.886 0.892 0.896 0.897 0.956]
e_fermi =  0.8762207490732731
[2.    2.    2.    2.    2.    2.    2.    2.    2.    2.    2.    2.
 2.    2.    2.    2.    2.    2.    2.    2.    2.    2.    2.    1.581
 0.263 0.084 0.04  0.031]
entropy correction =  -0.012588960513379545
cycle= 7 E= -88.417541587565  delta_E= -0.000176  |g|= 0.00465  |ddm|= 0.0584
HOMO: 0.8703620137487564 LUMO: 0.8858869563780712
mo_energy:
[0.213 0.217 0.226 0.23  0.373 0.391 0.637 0.638 0.639 0.644 0.65  0.653
 0.659 0.659 0.686 0.696 0.696 0.711 0.783 0.801 0.806 0.824 0.834 0.87
 0.886 0.892 0.896 0.897 0.956]
e_fermi =  0.876721970540503
[2.    2.    2.    2.    2.    2.    2.    2.    2.    2.    2.    2.
 2.    2.    2.    2.    2.    2.    2.    2.    2.    2.    2.    1.562
 0.276 0.088 0.042 0.032]
entropy correction =  -0.012942178555835165
cycle= 8 E= -88.4175567951135  delta_E= -1.52e-05  |g|= 0.000444  |ddm|= 0.0157
HOMO: 0.8703111600913463 LUMO: 0.8858470447598982
mo_energy:
[0.213 0.217 0.226 0.23  0.373 0.391 0.637 0.638 0.639 0.644 0.65  0.653
 0.659 0.659 0.686 0.696 0.696 0.711 0.783 0.801 0.806 0.824 0.834 0.87
 0.886 0.892 0.896 0.897 0.956]
e_fermi =  0.8766846751015881
[2.    2.    2.    2.    2.    2.    2.    2.    2.    2.    2.    2.
 2.    2.    2.    2.    2.    2.    2.    2.    2.    2.    2.    1.563
 0.276 0.087 0.042 0.032]
entropy correction =  -0.012920218718591836
cycle= 9 E= -88.4175568873026  delta_E= -9.22e-08  |g|= 0.000171  |ddm|= 0.0013
HOMO: 0.8703131843474802 LUMO: 0.8858455396147105
mo_energy:
[0.213 0.217 0.226 0.23  0.373 0.391 0.637 0.638 0.639 0.644 0.65  0.653
 0.659 0.659 0.685 0.696 0.696 0.711 0.783 0.801 0.806 0.824 0.834 0.87
 0.886 0.892 0.896 0.897 0.956]
e_fermi =  0.8766859266017017
[2.    2.    2.    2.    2.    2.    2.    2.    2.    2.    2.    2.
 2.    2.    2.    2.    2.    2.    2.    2.    2.    2.    2.    1.563
 0.276 0.087 0.042 0.032]
entropy correction =  -0.012920571804862748
cycle= 10 E= -88.4175568984806  delta_E= -1.12e-08  |g|= 8.43e-05  |ddm|= 0.000364
HOMO: 0.8703225025064036 LUMO: 0.8858490826230785
mo_energy:
[0.213 0.217 0.226 0.23  0.373 0.391 0.637 0.638 0.639 0.644 0.65  0.653
 0.659 0.659 0.686 0.696 0.696 0.711 0.783 0.801 0.806 0.824 0.834 0.87
 0.886 0.892 0.896 0.897 0.956]
e_fermi =  0.8766923706644274
[2.    2.    2.    2.    2.    2.    2.    2.    2.    2.    2.    2.
 2.    2.    2.    2.    2.    2.    2.    2.    2.    2.    2.    1.563
 0.276 0.087 0.042 0.032]
entropy correction =  -0.012924160848410955
cycle= 11 E= -88.417556902508  delta_E= -4.03e-09  |g|= 1.81e-05  |ddm|= 0.000207
HOMO: 0.870323952811449 LUMO: 0.8858494980043565
mo_energy:
[0.213 0.217 0.226 0.23  0.373 0.391 0.637 0.638 0.639 0.644 0.65  0.653
 0.659 0.659 0.686 0.696 0.696 0.711 0.783 0.801 0.807 0.824 0.834 0.87
 0.886 0.892 0.896 0.897 0.956]
e_fermi =  0.876693333354736
[2.    2.    2.    2.    2.    2.    2.    2.    2.    2.    2.    2.
 2.    2.    2.    2.    2.    2.    2.    2.    2.    2.    2.    1.563
 0.276 0.087 0.042 0.032]
entropy correction =  -0.012924754913862095
cycle= 12 E= -88.4175569026579  delta_E= -1.5e-10  |g|= 5.28e-06  |ddm|= 4.92e-05
HOMO: 0.870322201574979 LUMO: 0.8858485842545653
mo_energy:
[0.213 0.217 0.226 0.23  0.373 0.391 0.637 0.638 0.639 0.644 0.65  0.653
 0.659 0.659 0.686 0.696 0.696 0.711 0.783 0.801 0.806 0.824 0.834 0.87
 0.886 0.892 0.896 0.897 0.956]
e_fermi =  0.8766921031791935
[2.    2.    2.    2.    2.    2.    2.    2.    2.    2.    2.    2.
 2.    2.    2.    2.    2.    2.    2.    2.    2.    2.    2.    1.563
 0.276 0.087 0.042 0.032]
entropy correction =  -0.012924035699397637
Extra cycle  E= -88.4175569026211  delta_E= 3.68e-11  |g|= 1e-05  |ddm|= 3.63e-05
converged SCF energy = -88.4175569026211
|umat| =  1.4204346414513387
rks_ao.ne_frozen =  0
Set gradient conv threshold to 3.16228e-05
tot grids = 120648
init E= -387.472096726985
HOMO:  0.19551338502806845 LUMO:  0.2053570606453867
Fermi energy:       0.1993238331
[2.     2.     2.     2.     2.     2.     2.     2.     2.     2.
 2.     2.     2.     2.     2.     2.     1.3636 0.4606 0.1471 0.019
 0.0097]
entropy correction =  -0.015122652578552744
cycle= 1 E= -327.205308716662  delta_E= 60.3  |g|= 12.4  |ddm|= 7.52
HOMO:  -8.404639959915876 LUMO:  -8.402721593925655
Fermi energy:      -8.4026997556
[2.     2.     2.     2.     2.     2.     2.     2.     1.9932 1.9898
 1.9873 1.9859 1.9849 1.9579 1.9572 1.9501 1.1916 1.0022]
entropy correction =  -0.01869883032939647
cycle= 2 E= -384.913898924827  delta_E= -57.7  |g|= 4.21  |ddm|= 7.66
HOMO:  -2.1602168245607545 LUMO:  -2.150111604372198
Fermi energy:      -2.1520644816
[2.     2.     2.     2.     2.     2.     2.     2.     1.9997 1.9985
 1.9945 1.9885 1.9762 1.9202 1.8344 1.8084 1.6725 0.8072]
entropy correction =  -0.02015753254082771
cycle= 3 E= -388.830162619271  delta_E= -3.92  |g|= 1.55  |ddm|= 3.35
HOMO:  -1.0801109770337594 LUMO:  -1.0733122001385411
Fermi energy:      -1.0760875506
[2.     2.     2.     2.     2.     2.     2.     2.     2.     2.
 2.     2.     2.     2.     1.9996 1.8522 1.382  0.7294 0.0318 0.0049]
entropy correction =  -0.016387855953113765
cycle= 4 E= -374.675211276413  delta_E= 14.2  |g|= 8.48  |ddm|= 4.19
HOMO:  -1.3485136144630676 LUMO:  -1.3271814158537911
Fermi energy:      -1.3374628579
[2.     2.     2.     2.     2.     2.     2.     2.     2.     2.
 2.     2.     2.     1.9911 1.885  1.8761 1.8023 0.2268 0.2187]
entropy correction =  -0.015021557719397652
cycle= 5 E= -384.49505864884  delta_E= -9.82  |g|= 4.25  |ddm|= 2.17
HOMO:  -1.442073878191938 LUMO:  -1.434621426516156
Fermi energy:      -1.4370841058
[2.     2.     2.     2.     2.     2.     2.     2.     2.     2.
 2.     2.     2.     1.973  1.918  1.8891 1.4613 0.7586]
entropy correction =  -0.017032516582330976
cycle= 6 E= -388.21566243357  delta_E= -3.72  |g|= 2.43  |ddm|= 1.92
HOMO:  -1.4931475506619005 LUMO:  -1.4847609635776342
Fermi energy:      -1.4859474806
[2.     2.     2.     2.     2.     2.     2.     2.     2.     2.
 2.     2.     2.     1.8926 1.8415 1.767  1.6169 0.8819]
entropy correction =  -0.020205955725584753
cycle= 7 E= -388.592728854635  delta_E= -0.377  |g|= 1.88  |ddm|= 0.375
HOMO:  -1.4575441942699758 LUMO:  -1.4509856443375602
Fermi energy:      -1.4542461520
[2.     2.     2.     2.     2.     2.     2.     2.     2.     2.
 2.     2.     2.     1.9998 1.9991 1.9976 1.3183 0.685 ]
entropy correction =  -0.012979960387841789
cycle= 8 E= -388.453484544498  delta_E= 0.139  |g|= 2.02  |ddm|= 1.82
HOMO:  -1.4809149396726007 LUMO:  -1.477022410275913
Fermi energy:      -1.4759503703
[2.     2.     2.     2.     2.     2.     2.     2.     2.     2.
 2.     2.     2.     1.9783 1.8903 1.5652 1.4593 1.1068]
entropy correction =  -0.020669479993270783
cycle= 9 E= -388.508746450134  delta_E= -0.0553  |g|= 1.93  |ddm|= 1.56
HOMO:  -1.5045453062727818 LUMO:  -1.4968902723824729
Fermi energy:      -1.4992712958
[2.     2.     2.     2.     2.     2.     2.     2.     2.     2.
 2.     2.     2.     1.9538 1.9009 1.8956 1.4834 0.7663]
entropy correction =  -0.0174884975473754
cycle= 10 E= -388.584224292915  delta_E= -0.0755  |g|= 1.85  |ddm|= 1.39
HOMO:  -1.5608660063349546 LUMO:  -1.5525332055836734
Fermi energy:      -1.5558268702
[2.     2.     2.     2.     2.     2.     2.     2.     2.     2.
 2.     2.     2.     1.9756 1.953  1.9242 1.4652 0.682 ]
entropy correction =  -0.015609051806071283
cycle= 11 E= -388.659325357991  delta_E= -0.0751  |g|=  1.7  |ddm|= 0.139
HOMO:  -1.496642086959581 LUMO:  -1.4901314036297182
Fermi energy:      -1.4933521633
[2.     2.     2.     2.     2.     2.     2.     2.     2.     2.
 2.     2.     2.     1.9998 1.9992 1.9948 1.3176 0.6886]
entropy correction =  -0.013083951269304133
cycle= 12 E= -388.58756402155  delta_E= 0.0718  |g|= 1.83  |ddm|= 0.178
HOMO:  -1.5062633379147445 LUMO:  -1.4995687767469097
Fermi energy:      -1.5028690353
[2.     2.     2.     2.     2.     2.     2.     2.     2.     2.
 2.     2.     2.     1.9995 1.9978 1.9943 1.327  0.6815]
entropy correction =  -0.013107268437349382
cycle= 13 E= -388.589193646595  delta_E= -0.00163  |g|= 1.82  |ddm|= 0.164
HOMO:  -1.5116631493518353 LUMO:  -1.504985537810604
Fermi energy:      -1.5082777465
[2.     2.     2.     2.     2.     2.     2.     2.     2.     2.
 2.     2.     2.     1.9995 1.9979 1.9943 1.3262 0.6822]
entropy correction =  -0.01310989384208387
cycle= 14 E= -388.599164376984  delta_E= -0.00997  |g|=  1.8  |ddm|= 0.0476
HOMO:  -1.6253470192661996 LUMO:  -1.6214687449850043
Fermi energy:      -1.6183667415
[2.     2.     2.     2.     2.     2.     2.     2.     1.9998 1.9994
 1.9988 1.956  1.8457 1.8306 1.7494 1.7166 1.6031 1.3006]
entropy correction =  -0.02607157160144746
cycle= 15 E= -389.569109672017  delta_E= -0.97  |g|= 0.296  |ddm|= 0.951
HOMO:  -1.5825219872517744 LUMO:  -1.5788256350244338
Fermi energy:      -1.5770791133
[2.     2.     2.     2.     2.     2.     2.     2.     2.     2.
 2.     1.9999 1.9997 1.9615 1.8207 1.5489 1.4962 1.1729]
entropy correction =  -0.021747219155333296
cycle= 16 E= -388.733125523849  delta_E= 0.836  |g|= 1.56  |ddm|= 1.16
HOMO:  -1.603429530846183 LUMO:  -1.596231274573999
Fermi energy:      -1.5989551451
[2.     2.     2.     2.     2.     2.     2.     2.     1.9982 1.9961
 1.9958 1.9867 1.9811 1.9752 1.9606 1.9523 1.4198 0.7342]
entropy correction =  -0.01665578897600066
cycle= 17 E= -388.977024622697  delta_E= -0.244  |g|= 1.28  |ddm|= 1.51
HOMO:  -1.5697225760958853 LUMO:  -1.5691684047809935
Fermi energy:      -1.5679768874
[2.     2.     2.     2.     2.     2.     2.     2.     2.     2.
 2.     1.9999 1.9994 1.9721 1.8956 1.8417 1.1728 1.1186]
entropy correction =  -0.019230079179436716
cycle= 18 E= -388.732089317259  delta_E= 0.245  |g|= 1.56  |ddm|=  1.6
HOMO:  -1.5975580325784973 LUMO:  -1.5900258520407704
Fermi energy:      -1.5927460729
[2.     2.     2.     2.     2.     2.     2.     2.     1.9992 1.9976
 1.9931 1.9896 1.9829 1.9614 1.9527 1.9418 1.4472 0.7345]
entropy correction =  -0.017034341613095094
cycle= 19 E= -388.926073902103  delta_E= -0.194  |g|= 1.34  |ddm|= 1.61
HOMO:  -1.5772300194728845 LUMO:  -1.5698402711790191
Fermi energy:      -1.5733191338
[2.     2.     2.     2.     2.     2.     2.     2.     2.     2.
 2.     1.9999 1.9999 1.9968 1.9923 1.9733 1.3723 0.6655]
entropy correction =  -0.013674352211193877
cycle= 20 E= -388.750273362339  delta_E= 0.176  |g|= 1.54  |ddm|= 0.126
HOMO:  -1.5817781806282303 LUMO:  -1.5742139143220837
Fermi energy:      -1.5778068717
[2.     2.     2.     2.     2.     2.     2.     2.     2.     1.9999
 1.9998 1.9996 1.9995 1.9971 1.9923 1.9788 1.3775 0.6554]
entropy correction =  -0.01353055930538221
cycle= 21 E= -388.758773418719  delta_E= -0.0085  |g|= 1.52  |ddm|= 0.0268
HOMO:  -1.5867173761018614 LUMO:  -1.5789035445043051
Fermi energy:      -1.5816071008
[2.     2.     2.     2.     2.     2.     2.     2.     1.9982 1.9937
 1.9932 1.9908 1.9897 1.9771 1.9558 1.8946 1.4707 0.736 ]
entropy correction =  -0.017232771533436553
cycle= 22 E= -389.062165290228  delta_E= -0.303  |g|=  1.2  |ddm|= 0.18
HOMO:  -1.5959922559196722 LUMO:  -1.5883339062690789
Fermi energy:      -1.5899471116
[2.     2.     2.     2.     2.     2.     2.     2.     1.9993 1.9992
 1.9988 1.9986 1.9941 1.9157 1.8909 1.8229 1.5403 0.8401]
entropy correction =  -0.019420084624832985
cycle= 23 E= -388.797772051665  delta_E= 0.264  |g|=  1.5  |ddm|= 0.267
HOMO:  -1.5951490991918849 LUMO:  -1.58762386553725
Fermi energy:      -1.5872892487
[2.     2.     2.     2.     2.     2.     2.     2.     2.     2.
 2.     1.9999 1.9996 1.8023 1.7703 1.7383 1.6561 1.0334]
entropy correction =  -0.022208424611166483
cycle= 24 E= -388.769586098522  delta_E= 0.0282  |g|= 1.55  |ddm|= 0.265
HOMO:  -1.5976306397989948 LUMO:  -1.5904314962819253
Fermi energy:      -1.5892505682
[2.     2.     2.     2.     2.     2.     2.     2.     2.     2.
 2.     1.9999 1.9994 1.7524 1.7377 1.7083 1.6848 1.1175]
entropy correction =  -0.023038318228776618
cycle= 25 E= -388.775473415259  delta_E= -0.00589  |g|= 1.54  |ddm|= 0.108
HOMO:  -1.5864449970172043 LUMO:  -1.5830220693545092
Fermi energy:      -1.5806204973
[2.     2.     2.     2.     2.     2.     2.     2.     2.     2.
 2.     2.     2.     1.8501 1.8105 1.5793 1.5244 1.2356]
entropy correction =  -0.02307838024751585
cycle= 26 E= -388.759196833672  delta_E= 0.0163  |g|= 1.57  |ddm|= 0.283
HOMO:  -1.5631828724872858 LUMO:  -1.55543978630571
Fermi energy:      -1.5592162900
[2.     2.     2.     2.     2.     2.     2.     2.     2.     2.
[...]
 1.9266 1.8989 1.8774 1.8484 1.7985 1.6502 1.5914 1.4797]
entropy correction =  -0.02903069719574818
cycle= 27 E= -389.755274556915  delta_E= 0.0541  |g|= 0.342  |ddm|= 0.796
HOMO:  -1.6351311655035425 LUMO:  -1.630129818668032
Fermi energy:      -1.6261897430
[2.     2.     2.     2.     2.     2.     2.     2.     1.9413 1.9398
 1.9043 1.8956 1.8813 1.8523 1.7603 1.7369 1.7134 1.3748]
entropy correction =  -0.029413620345070248
cycle= 28 E= -389.708558076445  delta_E= 0.0467  |g|= 0.553  |ddm|= 0.614
HOMO:  -1.635733732508658 LUMO:  -1.6309101188988016
Fermi energy:      -1.6272275191
[2.     2.     2.     2.     2.     2.     2.     2.     1.9252 1.9142
 1.8828 1.8711 1.863  1.853  1.8352 1.8118 1.6914 1.3525]
entropy correction =  -0.02967624639670713
cycle= 29 E= -389.768527957508  delta_E= -0.06  |g|= 0.37  |ddm|= 0.156
HOMO:  -1.6357443172225947 LUMO:  -1.6324808483615283
Fermi energy:      -1.6275155559
[2.     2.     2.     2.     2.     2.     2.     2.     1.9174 1.91
 1.9042 1.8718 1.8609 1.8553 1.797  1.7475 1.6766 1.4594]
entropy correction =  -0.030318406945229342
cycle= 30 E= -389.790681952116  delta_E= -0.0222  |g|= 0.262  |ddm|= 0.218
HOMO:  -1.634766011261981 LUMO:  -1.6312250708972498
Fermi energy:      -1.6271095671
[2.     2.     2.     2.     2.     2.     2.     2.     1.9177 1.9051
 1.8981 1.88   1.8752 1.8596 1.8367 1.7935 1.6444 1.3898]
entropy correction =  -0.02976706116282368
cycle= 31 E= -389.807898900417  delta_E= -0.0172  |g|= 0.147  |ddm|= 0.213
HOMO:  -1.6347996547585413 LUMO:  -1.6317444723666066
Fermi energy:      -1.6274617788
[2.     2.     2.     2.     2.     2.     2.     2.     1.8959 1.8848
 1.8741 1.8729 1.8678 1.8606 1.8584 1.8563 1.6254 1.4039]
entropy correction =  -0.029984356964869924
cycle= 32 E= -389.815760614232  delta_E= -0.00786  |g|= 0.0452  |ddm|= 0.178
HOMO:  -1.6357101448861144 LUMO:  -1.632599745509121
Fermi energy:      -1.6283232084
[2.     2.     2.     2.     2.     2.     2.     2.     1.8894 1.8844
 1.8754 1.8718 1.8699 1.8619 1.8599 1.8556 1.6284 1.4034]
entropy correction =  -0.030004970827995282
cycle= 33 E= -389.816103850753  delta_E= -0.000343  |g|= 0.0352  |ddm|= 0.0692
HOMO:  -1.6357995410749413 LUMO:  -1.6326950615991174
Fermi energy:      -1.6284064562
[2.     2.     2.     2.     2.     2.     2.     2.     1.8832 1.8783
 1.8758 1.8745 1.8693 1.8685 1.8596 1.8577 1.6287 1.4044]
entropy correction =  -0.030025505795030744
cycle= 34 E= -389.816569095569  delta_E= -0.000465  |g|= 0.0105  |ddm|= 0.0424
HOMO:  -1.6359020824515036 LUMO:  -1.6327885326403184
Fermi energy:      -1.6284552612
[2.     2.     2.     2.     2.     2.     2.     2.     1.8799 1.8783
 1.8757 1.8745 1.8706 1.8632 1.8594 1.8582 1.632  1.4081]
entropy correction =  -0.030079266951666392
cycle= 35 E= -389.816567244151  delta_E= 1.85e-06  |g|= 0.0112  |ddm|= 0.0157
HOMO:  -1.6358144160858554 LUMO:  -1.6327079816908783
Fermi energy:      -1.6284072577
[2.     2.     2.     2.     2.     2.     2.     2.     1.8794 1.8788
 1.8756 1.8746 1.8713 1.8644 1.8613 1.8596 1.6296 1.4054]
entropy correction =  -0.03004230134035382
cycle= 36 E= -389.816598783305  delta_E= -3.15e-05  |g|= 0.00639  |ddm|= 0.00725
HOMO:  -1.6358284935706333 LUMO:  -1.6327207472302738
Fermi energy:      -1.6283758136
[2.     2.     2.     2.     2.     2.     2.     2.     1.8793 1.8786
 1.876  1.8745 1.8702 1.8635 1.8593 1.8571 1.6323 1.4091]
entropy correction =  -0.030089638124915698
cycle= 37 E= -389.816611277532  delta_E= -1.25e-05  |g|= 0.0014  |ddm|= 0.00905
HOMO:  -1.6357789775607054 LUMO:  -1.6326750049332612
Fermi energy:      -1.6283504694
[2.     2.     2.     2.     2.     2.     2.     2.     1.8793 1.8782
 1.8757 1.8749 1.8707 1.8645 1.86   1.8586 1.6309 1.4074]
entropy correction =  -0.030067130841769027
cycle= 38 E= -389.816611443367  delta_E= -1.66e-07  |g|= 0.00265  |ddm|= 0.00518
HOMO:  -1.6357784266692854 LUMO:  -1.632674397631
Fermi energy:      -1.6283488909
[2.     2.     2.     2.     2.     2.     2.     2.     1.8793 1.8781
 1.8759 1.8747 1.8708 1.8643 1.8602 1.8585 1.6309 1.4075]
entropy correction =  -0.03006825955835503
cycle= 39 E= -389.816613871129  delta_E= -2.43e-06  |g|= 0.000339  |ddm|= 0.00151
HOMO:  -1.6357550048784473 LUMO:  -1.632652381399817
Fermi energy:      -1.6283408898
[2.     2.     2.     2.     2.     2.     2.     2.     1.8796 1.8781
 1.8759 1.8747 1.8708 1.8647 1.8608 1.8591 1.63   1.4063]
entropy correction =  -0.030052660029305293
cycle= 40 E= -389.816613422628  delta_E= 4.49e-07  |g|= 0.000889  |ddm|= 0.00273
HOMO:  -1.6357729304851614 LUMO:  -1.6326691890399136
Fermi energy:      -1.6283473992
[2.     2.     2.     2.     2.     2.     2.     2.     1.8793 1.8779
 1.8759 1.8749 1.8708 1.8645 1.8603 1.8585 1.6307 1.4071]
entropy correction =  -0.030064159471980635
cycle= 41 E= -389.816613923496  delta_E= -5.01e-07  |g|= 0.000109  |ddm|= 0.00247
HOMO:  -1.6357671079254426 LUMO:  -1.6326637395519177
Fermi energy:      -1.6283427069
[2.     2.     2.     2.     2.     2.     2.     2.     1.8793 1.878
 1.8758 1.8748 1.8708 1.8644 1.8604 1.8587 1.6306 1.4071]
entropy correction =  -0.030063247656844136
cycle= 42 E= -389.816613964604  delta_E= -4.11e-08  |g|= 9.92e-06  |ddm|= 0.000742
HOMO:  -1.6357657448668912 LUMO:  -1.6326624631478086
Fermi energy:      -1.6283417507
[2.     2.     2.     2.     2.     2.     2.     2.     1.8793 1.8781
 1.8758 1.8748 1.8708 1.8644 1.8604 1.8587 1.6306 1.4071]
entropy correction =  -0.03006286822455999
cycle= 43 E= -389.816613964011  delta_E= 5.93e-10  |g|= 1.69e-05  |ddm|= 0.000153
HOMO:  -1.6357684661282734 LUMO:  -1.632664948178756
Fermi energy:      -1.6283433439
[2.     2.     2.     2.     2.     2.     2.     2.     1.8794 1.8779
 1.8759 1.8747 1.8708 1.8644 1.8604 1.8586 1.6307 1.4071]
entropy correction =  -0.03006391832443839
Extra cycle  E= -389.816613633014  delta_E= 3.31e-07  |g|= 0.000967  |ddm|= 0.000599
entropy correction =  -0.03006391832443839
rks_ao.ne_frozen =  0
Set gradient conv threshold to 3.16228e-05
tot grids = 139880
init E= -78.8153164293389
HOMO:  0.16743872572956328 LUMO:  0.20041896277339624
Fermi energy:       0.1837370072
[2.     2.     2.     2.     2.     2.     2.     2.     2.     2.
 2.     2.     2.     2.     2.     2.     2.     2.     2.     2.
 2.     2.     2.     1.926  0.0687 0.0053]
entropy correction =  -0.003260615190883299
cycle= 1 E= -86.2328114398911  delta_E= -7.42  |g|= 2.64  |ddm|= 10.1
HOMO:  0.8189429673927464 LUMO:  0.8436152537301296
Fermi energy:       0.8312619010
[2.0000e+00 2.0000e+00 2.0000e+00 2.0000e+00 2.0000e+00 2.0000e+00
 2.0000e+00 2.0000e+00 2.0000e+00 2.0000e+00 2.0000e+00 2.0000e+00
 2.0000e+00 2.0000e+00 2.0000e+00 2.0000e+00 2.0000e+00 2.0000e+00
 2.0000e+00 2.0000e+00 2.0000e+00 2.0000e+00 2.0000e+00 1.8431e+00
 1.5588e-01 9.9258e-04]
entropy correction =  -0.005529396652959899
cycle= 2 E= -87.1188633414163  delta_E= -0.886  |g|= 2.06  |ddm|=  6.2
HOMO:  0.8998596399999956 LUMO:  0.9048055277885333
Fermi energy:       0.9001951477
[2.0000e+00 2.0000e+00 2.0000e+00 2.0000e+00 2.0000e+00 2.0000e+00
 2.0000e+00 2.0000e+00 2.0000e+00 2.0000e+00 2.0000e+00 2.0000e+00
 2.0000e+00 2.0000e+00 2.0000e+00 2.0000e+00 2.0000e+00 2.0000e+00
 2.0000e+00 2.0000e+00 2.0000e+00 1.9998e+00 1.9941e+00 1.0335e+00
 5.6907e-01 2.9530e-01 9.5212e-02 1.2518e-02 5.4319e-04]
entropy correction =  -0.019618482286257177
cycle= 3 E= -88.4414257151962  delta_E= -1.32  |g|= 0.242  |ddm|= 2.56
HOMO:  0.838876061619163 LUMO:  0.8663726890236381
Fermi energy:       0.8520019128
[2.     2.     2.     2.     2.     2.     2.     2.     2.     2.
 2.     2.     2.     2.     2.     2.     2.     2.     2.     2.
 2.     2.     2.     1.8649 0.1069 0.0141 0.0116 0.0025]
entropy correction =  -0.00542993267329083
cycle= 4 E= -88.4575119163547  delta_E= -0.0161  |g|= 0.191  |ddm|= 1.21
HOMO:  0.8638387863431027 LUMO:  0.8823305802059158
Fermi energy:       0.8719352666
[2.     2.     2.     2.     2.     2.     2.     2.     2.     2.
 2.     2.     2.     2.     2.     2.     2.     2.     2.     2.
 2.     2.     2.     1.6694 0.2223 0.0565 0.0295 0.0223]
entropy correction =  -0.010644904216523683
cycle= 5 E= -88.4717674422954  delta_E= -0.0143  |g|= 0.0517  |ddm|= 0.239
HOMO:  0.8758229444145585 LUMO:  0.8891441081380568
Fermi energy:       0.8808903442
[2.0000e+00 2.0000e+00 2.0000e+00 2.0000e+00 2.0000e+00 2.0000e+00
 2.0000e+00 2.0000e+00 2.0000e+00 2.0000e+00 2.0000e+00 2.0000e+00
 2.0000e+00 2.0000e+00 2.0000e+00 2.0000e+00 2.0000e+00 2.0000e+00
 2.0000e+00 2.0000e+00 2.0000e+00 2.0000e+00 1.9999e+00 1.4674e+00
 3.2201e-01 1.1823e-01 4.8848e-02 4.3394e-02 1.8801e-04]
entropy correction =  -0.014661737125373121
cycle= 6 E= -88.4731344298916  delta_E= -0.00137  |g|= 0.0156  |ddm|= 0.17
HOMO:  0.8735684813992909 LUMO:  0.8881474847689138
Fermi energy:       0.8793854755
[2.0000e+00 2.0000e+00 2.0000e+00 2.0000e+00 2.0000e+00 2.0000e+00
 2.0000e+00 2.0000e+00 2.0000e+00 2.0000e+00 2.0000e+00 2.0000e+00
 2.0000e+00 2.0000e+00 2.0000e+00 2.0000e+00 2.0000e+00 2.0000e+00
 2.0000e+00 2.0000e+00 2.0000e+00 2.0000e+00 1.9999e+00 1.5239e+00
 2.9549e-01 9.6668e-02 4.7208e-02 3.6672e-02 1.7076e-04]
entropy correction =  -0.013659100122345398
cycle= 7 E= -88.4732591367168  delta_E= -0.000125  |g|= 0.00438  |ddm|= 0.0503
HOMO:  0.874442167115286 LUMO:  0.8886037435184155
Fermi energy:       0.8800163279
[2.0000e+00 2.0000e+00 2.0000e+00 2.0000e+00 2.0000e+00 2.0000e+00
 2.0000e+00 2.0000e+00 2.0000e+00 2.0000e+00 2.0000e+00 2.0000e+00
 2.0000e+00 2.0000e+00 2.0000e+00 2.0000e+00 2.0000e+00 2.0000e+00
 2.0000e+00 2.0000e+00 2.0000e+00 2.0000e+00 1.9999e+00 1.5061e+00
 3.0439e-01 1.0197e-01 4.9559e-02 3.7960e-02 1.8014e-04]
entropy correction =  -0.013986048199450993
cycle= 8 E= -88.4732717919856  delta_E= -1.27e-05  |g|= 0.000717  |ddm|= 0.0149
HOMO:  0.874442699684823 LUMO:  0.8886079659120941
Fermi energy:       0.8800191986
[2.0000e+00 2.0000e+00 2.0000e+00 2.0000e+00 2.0000e+00 2.0000e+00
 2.0000e+00 2.0000e+00 2.0000e+00 2.0000e+00 2.0000e+00 2.0000e+00
 2.0000e+00 2.0000e+00 2.0000e+00 2.0000e+00 2.0000e+00 2.0000e+00
 2.0000e+00 2.0000e+00 2.0000e+00 2.0000e+00 1.9999e+00 1.5062e+00
 3.0432e-01 1.0188e-01 4.9573e-02 3.7930e-02 1.8010e-04]
entropy correction =  -0.013982871897674748
cycle= 9 E= -88.4732720053725  delta_E= -2.13e-07  |g|= 0.00025  |ddm|= 0.00146
HOMO:  0.87442229028003 LUMO:  0.8886041802184217
Fermi energy:       0.8800087361
[2.0000e+00 2.0000e+00 2.0000e+00 2.0000e+00 2.0000e+00 2.0000e+00
 2.0000e+00 2.0000e+00 2.0000e+00 2.0000e+00 2.0000e+00 2.0000e+00
 2.0000e+00 2.0000e+00 2.0000e+00 2.0000e+00 2.0000e+00 2.0000e+00
 2.0000e+00 2.0000e+00 2.0000e+00 2.0000e+00 1.9999e+00 1.5070e+00
 3.0398e-01 1.0160e-01 4.9546e-02 3.7845e-02 1.7982e-04]
entropy correction =  -0.013969489280228422
cycle= 10 E= -88.4732720372829  delta_E= -3.19e-08  |g|= 8.39e-05  |ddm|= 0.000741
HOMO:  0.8744276754728431 LUMO:  0.8886074715798429
Fermi energy:       0.8800129618
[2.0000e+00 2.0000e+00 2.0000e+00 2.0000e+00 2.0000e+00 2.0000e+00
 2.0000e+00 2.0000e+00 2.0000e+00 2.0000e+00 2.0000e+00 2.0000e+00
 2.0000e+00 2.0000e+00 2.0000e+00 2.0000e+00 2.0000e+00 2.0000e+00
 2.0000e+00 2.0000e+00 2.0000e+00 2.0000e+00 1.9999e+00 1.5069e+00
 3.0403e-01 1.0161e-01 4.9565e-02 3.7848e-02 1.7989e-04]
entropy correction =  -0.013971040563521298
cycle= 11 E= -88.4732720404144  delta_E= -3.13e-09  |g|= 2.21e-05  |ddm|= 0.000181
HOMO:  0.8744310942558919 LUMO:  0.8886091552609703
Fermi energy:       0.8800153778
[2.0000e+00 2.0000e+00 2.0000e+00 2.0000e+00 2.0000e+00 2.0000e+00
 2.0000e+00 2.0000e+00 2.0000e+00 2.0000e+00 2.0000e+00 2.0000e+00
 2.0000e+00 2.0000e+00 2.0000e+00 2.0000e+00 2.0000e+00 2.0000e+00
 2.0000e+00 2.0000e+00 2.0000e+00 2.0000e+00 1.9999e+00 1.5068e+00
 3.0406e-01 1.0164e-01 4.9575e-02 3.7855e-02 1.7993e-04]
entropy correction =  -0.013972389630684208
cycle= 12 E= -88.4732720407134  delta_E= -2.99e-10  |g|= 1.47e-06  |ddm|= 6.51e-05
HOMO:  0.8744307576610176 LUMO:  0.8886089736630013
Fermi energy:       0.8800151406
[2.0000e+00 2.0000e+00 2.0000e+00 2.0000e+00 2.0000e+00 2.0000e+00
 2.0000e+00 2.0000e+00 2.0000e+00 2.0000e+00 2.0000e+00 2.0000e+00
 2.0000e+00 2.0000e+00 2.0000e+00 2.0000e+00 2.0000e+00 2.0000e+00
 2.0000e+00 2.0000e+00 2.0000e+00 2.0000e+00 1.9999e+00 1.5068e+00
 3.0406e-01 1.0163e-01 4.9574e-02 3.7854e-02 1.7993e-04]
entropy correction =  -0.01397225000322129
Extra cycle  E= -88.4732720407122  delta_E= 1.11e-12  |g|= 2.28e-06  |ddm|= 1.07e-05
entropy correction =  -0.01397225000322129
scf energies:
EA (no vemb contrib.) =  -445.2620729715294
EB (no vemb contrib.) =  -181.37951401808004
W =  -626.3931390073374
P_imp change (scf - non-scf):  0.21131949571190267
P_bath change (scf - non-scf):  0.20385857972487229
|P_frag + P_env - P_ref| =  0.5816931818781821
max element of (P_frag + P_env - P_ref) =  0.0747475878310152
mo orthogonality:
[[ 4.9591e-03  2.0476e-02  1.3062e-04  2.0860e-05  3.3962e-02  5.8700e-05
  -3.8984e-05 -2.7299e-03  9.0326e-06 -6.4579e-04 -4.1821e-05  6.2624e-04
  -1.8441e-04 -1.4572e-05  1.6718e-03 -3.2166e-04 -2.6027e-02 -5.6012e-04
   7.6675e-05 -2.7229e-04  1.6483e-03 -1.8489e-04  3.8945e-02  5.5916e-05
   3.0243e-04  3.1258e-04  2.4635e-03  1.2281e-01  5.5009e-04 -6.4081e-03]
 [-2.8879e-02  5.8575e-03 -1.5457e-04  7.4074e-05  1.8903e-03 -3.4456e-06
   2.5497e-03 -1.6108e-05  1.0694e-04 -3.3436e-05  9.7693e-04  1.1632e-04
   3.1636e-05  5.0203e-04 -2.8448e-02  1.1857e-03 -1.5359e-03 -5.4030e-05
  -2.6012e-05 -2.8093e-04 -3.1831e-02  9.6935e-04  2.1508e-03  9.3060e-05
   1.9211e-05  1.8381e-03 -1.0769e-01  3.8339e-03 -1.8742e-03  2.2506e-03]
 [ 1.5925e-03  8.2938e-03 -1.2892e-04  6.3026e-06 -1.1874e-02  2.4763e-06
   3.3274e-04 -4.5238e-03  6.3546e-05 -6.5287e-04  3.4946e-05  3.2892e-05
   1.7838e-05  4.0803e-06  4.6339e-05  3.8594e-06 -3.0124e-03  1.5013e-05
  -1.1611e-05  8.9619e-05  2.7708e-04  2.7114e-05 -8.1662e-03  2.7826e-05
   2.9685e-05  1.3045e-05  1.6752e-03 -2.4338e-02  2.5635e-05 -1.7686e-03]
 [ 1.7731e-05  8.2306e-05  9.3424e-03 -3.6156e-04 -2.7272e-04  6.4941e-04
   3.0275e-05  3.3431e-05 -2.0410e-05 -3.2260e-04  1.8134e-04 -4.4200e-03
  -1.9011e-04  1.2687e-05 -1.6689e-05  2.8585e-06 -1.1191e-04 -5.3429e-03
  -2.0491e-05 -5.0496e-06  6.5056e-05  5.2111e-04 -1.4656e-04 -2.6223e-03
  -4.0004e-04  2.9056e-03 -5.5035e-06 -9.4780e-04 -6.4613e-04 -1.0721e-02]
 [ 4.4985e-03 -1.0161e-03  3.3832e-04  2.9265e-03  4.1352e-04 -4.5125e-03
   2.9384e-03  2.6416e-04  3.1713e-04  2.5369e-05 -1.1482e-03 -1.4981e-04
  -7.1728e-06  4.9197e-05  4.4495e-04  2.4921e-04  9.9408e-05 -1.8990e-04
   1.0691e-04  1.5413e-05  5.0194e-03 -3.7914e-03  2.7408e-04 -1.6336e-04
   1.4987e-03 -2.0675e-02  2.2431e-02  1.5002e-03  1.5517e-04 -4.8420e-04]
 [ 2.8472e-03 -7.0459e-04 -6.0639e-04 -4.5830e-03  3.2332e-04  7.0521e-03
   1.9238e-03  1.9550e-04 -5.0066e-05  2.5138e-05  1.8662e-03  3.2339e-04
   9.0384e-06 -3.5350e-05  3.5665e-04 -3.2362e-04  6.7798e-05  3.8482e-04
  -1.0185e-04  6.2911e-05  3.4473e-03  5.5751e-03  2.3204e-04  2.4344e-04
  -1.9953e-03  3.1458e-02  1.5318e-02  1.1325e-03 -1.3617e-04  2.4790e-04]
 [-2.6692e-05 -8.8384e-06  7.8700e-05 -2.2347e-04  2.5160e-05  3.1880e-04
  -4.1906e-04  2.6239e-05  6.2247e-03  2.1631e-04  1.2101e-04 -3.8586e-05
  -6.5358e-06  1.1904e-05 -1.3812e-05 -2.2604e-06  6.7858e-06 -4.6983e-05
   5.2169e-03  2.6032e-05 -3.2000e-05  3.3198e-04  9.5282e-07 -2.4603e-05
   7.9108e-02  1.2640e-03 -3.4784e-04 -2.8179e-04  1.1033e-02 -3.3107e-03]
 [-1.4858e-05  1.1045e-05 -2.3437e-04 -3.5758e-05 -5.0167e-05  3.9429e-05
  -8.5587e-05  1.5403e-05  1.3309e-03 -3.6542e-04  1.8371e-05  1.6577e-04
  -1.3630e-06 -1.3183e-06  3.3052e-06 -1.0892e-06 -1.6153e-05  1.5611e-04
   1.0947e-03  3.9232e-06  1.3570e-05  5.1248e-05 -8.1028e-05  3.1301e-05
   1.6837e-02  8.1321e-05  1.1804e-03  4.2313e-04 -5.1606e-02  1.5502e-02]
 [ 1.3829e-04  9.1456e-04  9.5977e-05  1.0305e-04  6.5158e-04  1.1393e-04
  -4.0810e-03  3.9193e-03  5.2571e-04  5.0423e-03 -1.8931e-04 -3.9850e-04
   4.2622e-03  1.6502e-03 -1.0214e-03 -2.6131e-04 -2.3455e-03 -9.6371e-05
  -2.3985e-03  5.6485e-03  2.4746e-03  1.8364e-04 -4.3036e-03  1.3524e-03
  -1.2568e-03  1.8627e-04 -1.4797e-02  9.6953e-04 -2.7268e-03  1.2320e-03]
 [ 7.1676e-05 -2.0277e-04 -1.4818e-05  8.1449e-05 -6.5245e-04  6.2493e-05
   6.6956e-03 -8.3695e-04  1.4780e-03  3.7119e-03 -1.3878e-04 -1.8689e-04
  -4.0756e-03  1.0775e-03  1.3716e-03 -9.5005e-05  7.6262e-04  6.4009e-05
  -2.9017e-03 -5.5312e-03 -4.4548e-03  6.2834e-04 -1.0127e-03 -9.6050e-05
  -1.4322e-03  3.8204e-04 -1.7365e-02  4.2583e-02 -1.9148e-03 -2.2930e-03]
 [ 2.7189e-04  1.8399e-03  2.5655e-05 -5.7101e-06  1.3836e-03  3.9677e-06
  -9.7047e-04  8.8032e-03 -2.4937e-03  5.9872e-04 -4.9088e-05  5.7353e-04
  -3.9291e-03 -1.2865e-03 -1.6729e-04 -5.4674e-06 -4.3432e-03 -2.0775e-04
   6.1887e-03 -4.7436e-03  5.0647e-04 -1.6250e-04 -8.2587e-03  5.1025e-04
   3.1865e-03 -3.0962e-05  9.9325e-04  1.4741e-03  2.1327e-04  7.7117e-04]
 [-2.2959e-05  6.3247e-05 -3.2814e-05 -2.3507e-04 -1.3569e-05 -2.3691e-04
  -5.7896e-03  2.2549e-04  2.9248e-03 -1.2938e-03  5.3275e-04  3.4970e-04
  -4.6084e-03  3.0050e-03 -1.3146e-03  4.6962e-04  3.8727e-05  1.4879e-05
  -8.4555e-03 -6.4503e-03  3.6730e-03 -8.9258e-04 -5.1190e-04 -5.3770e-04
  -4.3585e-03  3.3951e-04 -1.2840e-02  5.6316e-03  5.7675e-04 -2.7254e-04]
 [-1.8174e-04 -7.0867e-04 -4.8411e-05  6.1843e-05 -2.8091e-04  7.6810e-05
  -4.7473e-03 -4.3059e-03 -1.7398e-03  2.6799e-03 -2.0340e-04 -2.7001e-04
  -3.3097e-03 -4.6596e-03 -1.0800e-03 -1.7193e-04  1.5487e-03  1.1014e-04
   3.6287e-03 -3.9011e-03  3.3749e-03 -3.4846e-05  4.0820e-03 -3.6997e-04
   1.7591e-03 -4.4841e-04  2.2400e-02 -2.2527e-02 -1.7225e-03  8.3647e-04]
 [-5.3227e-05 -9.9412e-04 -3.9475e-05 -1.3900e-05 -1.7069e-03 -6.6168e-06
  -1.4912e-03 -3.9740e-03 -3.0583e-03 -6.4053e-04  2.0157e-04 -2.0064e-04
  -3.7521e-05  3.0591e-03 -1.0249e-03  1.8016e-04  2.9892e-03  1.6735e-04
   7.7417e-03 -4.8427e-04  1.0919e-03 -3.9859e-04  8.7432e-04 -7.4230e-04
   4.1526e-03  1.2351e-03 -6.0098e-02  7.8007e-02 -3.4123e-04 -4.4777e-03]
 [-2.3005e-04 -4.1133e-04  2.4770e-05  1.1085e-04 -1.8329e-03  5.8410e-05
  -1.9461e-03 -1.0819e-03  7.6124e-04 -5.2640e-04 -2.5051e-04 -1.0694e-04
   1.0022e-03 -2.4808e-03  1.3312e-04 -2.7477e-04  1.9852e-03  1.5334e-04
  -2.2445e-03  1.5977e-03  1.2900e-03  3.5175e-04 -3.3125e-03  5.3162e-04
  -9.0177e-04 -4.9662e-04  5.1879e-02  1.2731e-01  2.1623e-03 -1.0520e-02]
 [ 2.0872e-04  3.8948e-05  7.5752e-05  6.2415e-05 -1.2082e-04  5.8709e-05
   8.8856e-04  7.1916e-04  1.6392e-03 -8.0000e-04 -2.7426e-04 -8.9744e-06
   6.0993e-04 -6.7652e-03 -7.6714e-04 -1.0012e-04 -4.2329e-05 -5.1205e-05
  -4.0237e-03  1.5360e-03 -6.5173e-04  2.7961e-04 -9.3331e-04  4.9887e-04
  -2.0396e-03  1.2380e-03 -7.2961e-02  1.3520e-02 -4.8944e-04  9.8290e-04]
 [ 8.8635e-06 -6.1162e-05 -3.5124e-04  3.2886e-02 -6.5024e-05  3.9516e-02
   2.9604e-03 -3.2527e-04 -2.4083e-04 -2.1158e-04 -7.4449e-02 -2.5262e-04
   1.3687e-04  2.2267e-03 -5.5374e-03 -7.5613e-02  7.2116e-04 -4.9658e-04
   2.0126e-04  9.9159e-04  3.9421e-03  1.2450e-01  2.4063e-04 -1.8939e-03
  -1.5791e-04 -1.9703e-02 -5.9433e-04 -4.6159e-04 -2.3577e-04 -8.7952e-04]
 [ 1.6963e-04  3.0770e-04 -3.6833e-02 -3.4014e-04 -8.6063e-05 -1.1562e-04
   6.8304e-06  8.7621e-04  2.1526e-05  3.2365e-04  1.9288e-04  4.7965e-03
   1.2675e-04 -3.7751e-05  1.7072e-04  3.8094e-04 -2.7896e-04  1.1578e-02
  -1.1498e-04 -2.5659e-05 -1.6739e-04 -7.5751e-04 -3.0667e-04 -3.9146e-01
  -5.6781e-05  9.1106e-04 -5.6755e-04 -8.8303e-04 -1.2740e-02 -5.4426e-02]]
|P_imp-P_imp_0| =  0.21131949571190267
max(P_imp-P_imp_0) =  0.02099215898785907
|P_bath-P_bath_0| =  0.20385857972487229
max(P_bath-P_bath_0) =  0.02387655921713691
time of total calc time : 143908.360  (cpu),  3784.479  (wall) 
 Subspace minimization time 0.000E+00 seconds.
 Line search           time 0.000E+00 seconds.

 Total User time 0.000E+00 seconds.

