#INFO: **** input file is /tigress/xingz/pydmfet/examples/research/proj/Cu2/dmfet/Cu2.py ****
from pydmfet import locints, sdmfet, oep, tools, dfet_ao, proj_ao
from pydmfet.dfet_ao import dfet
from pydmfet.qcwrap.pyscf_rks_ao import rks_ao
from pyscf import gto, scf,dft, ao2mo,cc
import numpy as np
from pyscf.tools import molden, cubegen
import copy,time
from pydmfet.tools.sym import h_lattice_sym_tab
import time

t0 = (time.clock(), time.time())


bas = 'lanl2dz'
ecp = 'lanl2dz'
temp = 0.005


mol = gto.Mole()
mol.atom = open('Cu2.xyz').read()
mol.basis = bas
mol.ecp = ecp
mol.charge = -2
mol.build(max_memory = 16000, verbose=4)

mf = rks_ao(mol,smear_sigma = temp)
mf.xc = 'pbe,pbe'
mf.max_cycle = 50
mf.scf(dm0=None)


natoms = mol.natm
impAtom = np.zeros([natoms], dtype=int)
for i in range(2):
    impAtom[i] = 1

ghost_frag = 1-impAtom
ghost_env = 1-ghost_frag

mol_frag = gto.Mole()
mol_frag.atom = tools.add_ghost(mol.atom, ghost_frag)
mol_frag.basis = bas
mol_frag.ecp = ecp
mol_frag.charge = 4
mol_frag.build(max_memory = 16000,verbose = 4)

mol_env = gto.Mole()
mol_env.atom = tools.add_ghost(mol.atom, ghost_env)
mol_env.basis =  bas
mol_env.ecp = ecp
mol_env.charge = -6
mol_env.build(max_memory = 16000,verbose = 4)

Ne_frag = 34
Ne_env = 48

boundary_atoms = None
boundary_atoms2 =None

umat = None
umat = np.load("umat.npy")

params = oep.OEPparams(algorithm = 'leastsq', opt_method = 'L-BFGS-B', diffP_tol=1e-3, outer_maxit = 20)
params.options['ftol'] = 1e-9
params.options['gtol'] = 1e-3
params.options['maxiter'] = 50
params.options['svd_thresh'] = 1e-2

theDMFET = dfet.DFET(mf, mol_frag, mol_env,Ne_frag,Ne_env,\
                     boundary_atoms=boundary_atoms, boundary_atoms2=boundary_atoms2,umat = umat,\
                     oep_params=params, smear_sigma=temp, ecw_method = 'hf',mf_method = mf.xc, plot_dens=True,\
                     scf_max_cycle = 200)

umat = theDMFET.embedding_potential()

t1 = tools.timer("total calc time", t0)
#INFO: ******************** input file end ********************


System: uname_result(system='Linux', node='tiger-h24c1n17', release='3.10.0-957.27.2.el7.x86_64', version='#1 SMP Tue Jul 30 11:12:20 EDT 2019', machine='x86_64', processor='x86_64')  Threads 40
Python 3.7.0 (default, Jun 28 2018, 13:15:42) 
[GCC 7.2.0]
numpy 1.16.4  scipy 1.4.0.dev0+0f78e0f
Date: Sat Sep  7 19:10:51 2019
PySCF version 1.5
PySCF path  /home/xingz/.local/lib/python3.7/site-packages/pyscf

[CONFIG] conf_file None
[INPUT] verbose = 4
[INPUT] num. atoms = 8
[INPUT] num. electrons = 82
[INPUT] charge = -2
[INPUT] spin (= nelec alpha-beta = 2S) = 0
[INPUT] symmetry False subgroup None
[INPUT] Mole.unit = angstrom
[INPUT]  1 Cu    -0.441980000000   1.042360000000  -0.035730000000 AA   -0.835221152535   1.969774923202  -0.067519914431 Bohr
[INPUT]  2 Cu     2.942440000000   1.248890000000   0.035730000000 AA    5.560405737965   2.360060059708   0.067519914431 Bohr
[INPUT]  3 Cl    -1.897990000000  -0.682570000000   0.075050000000 AA   -3.586681287163  -1.289870360844   0.141823945649 Bohr
[INPUT]  4 Cl    -2.090880000000   2.577820000000  -0.212080000000 AA   -3.951190559331   4.871373798426  -0.400773116498 Bohr
[INPUT]  5 Cl     1.158810000000   2.690810000000  -0.136080000000 AA    2.189833530407   5.084893953241  -0.257153931031 Bohr
[INPUT]  6 Cl     1.341650000000  -0.399560000000   0.136080000000 AA    2.535351055023  -0.755058970331   0.257153931031 Bohr
[INPUT]  7 Cl     4.398440000000   2.973820000000  -0.075050000000 AA    8.311846975332   5.619705343754  -0.141823945649 Bohr
[INPUT]  8 Cl     4.591340000000  -0.286580000000   0.212080000000 AA    8.676375144761  -0.541557712778   0.400773116498 Bohr

nuclear repulsion = 451.217501293853
number of shells = 38
number of NR pGTOs = 162
number of NR cGTOs = 92
basis = lanl2dz
ecp = lanl2dz
CPU time:         2.80
rks_ao.ne_frozen =  0


******** <class 'pydmfet.qcwrap.pyscf_rks_ao.rks_ao'> flags ********
method = rks_ao-RKS-RHF
initial guess = minao
damping factor = 0
level shift factor = 0
DIIS = <class 'pyscf.scf.diis.CDIIS'>
DIIS start cycle = 1
DIIS space = 8
SCF tol = 1e-09
SCF gradient tol = None
max. SCF cycles = 50
direct_scf = False
chkfile to save SCF result = /tmp/tmprsq_vpw5
max_memory 16000 MB (current use 66 MB)
XC functionals = pbe,pbe
small_rho_cutoff = 1e-07
radial grids: 
    Treutler-Ahlrichs (JCP 102, 346 (M4)) radial grids
    
becke partition: Becke, JCP, 88, 2547 (1988)
pruning grids: <function nwchem_prune at 0x2b41be914400>
grids dens level: 3
symmetrized grids: False
atomic radii adjust function: <function treutler_atomic_radii_adjust at 0x2b41be914378>
Set gradient conv threshold to 3.16228e-05
tot grids = 154128
init E= -467.462792451998
HOMO:  0.2187487143707611 LUMO:  0.2283143750194189
Fermi energy:       0.2235718634
[2.     2.     2.     2.     2.     2.     2.     2.     2.     2.
 2.     2.     2.     2.     2.     2.     2.     2.     2.     2.
 2.     2.     2.     2.     2.     2.     2.     2.     2.     2.
 2.     2.     2.     2.     2.     2.     2.     2.     2.     1.9935
 1.4481 0.5584]
entropy correction =  -0.012030461857601257
cycle= 1 E= -410.105804071393  delta_E= 57.4  |g|= 8.39  |ddm|= 25.9
HOMO:  -1.5630096420726052 LUMO:  -1.5367266498378802
Fermi energy:      -1.5499972181
[2.0000e+00 2.0000e+00 2.0000e+00 2.0000e+00 2.0000e+00 2.0000e+00
 2.0000e+00 2.0000e+00 2.0000e+00 2.0000e+00 2.0000e+00 2.0000e+00
 2.0000e+00 2.0000e+00 2.0000e+00 2.0000e+00 2.0000e+00 2.0000e+00
 2.0000e+00 2.0000e+00 2.0000e+00 2.0000e+00 2.0000e+00 2.0000e+00
 2.0000e+00 2.0000e+00 2.0000e+00 2.0000e+00 2.0000e+00 2.0000e+00
 2.0000e+00 2.0000e+00 2.0000e+00 2.0000e+00 2.0000e+00 2.0000e+00
 2.0000e+00 2.0000e+00 2.0000e+00 1.9796e+00 1.8620e+00 1.3147e-01
 2.6598e-02 2.7833e-04]
entropy correction =  -0.006223922518915236
cycle= 2 E= -401.538612213433  delta_E= 8.57  |g|= 7.31  |ddm|= 29.4
HOMO:  -0.1345790203948765 LUMO:  -0.059483384256818025
Fermi energy:      -0.0972415566
[2.0000e+00 2.0000e+00 2.0000e+00 2.0000e+00 2.0000e+00 2.0000e+00
 2.0000e+00 2.0000e+00 2.0000e+00 2.0000e+00 2.0000e+00 2.0000e+00
 2.0000e+00 2.0000e+00 2.0000e+00 2.0000e+00 2.0000e+00 2.0000e+00
 2.0000e+00 2.0000e+00 2.0000e+00 2.0000e+00 2.0000e+00 2.0000e+00
 2.0000e+00 2.0000e+00 2.0000e+00 2.0000e+00 2.0000e+00 2.0000e+00
 2.0000e+00 2.0000e+00 2.0000e+00 2.0000e+00 2.0000e+00 2.0000e+00
 2.0000e+00 2.0000e+00 2.0000e+00 2.0000e+00 1.9989e+00 1.0500e-03]
entropy correction =  -9.862463108505689e-05
cycle= 3 E= -466.993953695779  delta_E= -65.5  |g|= 5.85  |ddm|= 17.5
HOMO:  -0.19632377953859143 LUMO:  -0.19597791274159226
Fermi energy:      -0.1928443984
[2.     2.     2.     2.     2.     2.     2.     2.     2.     2.
 2.     2.     2.     2.     2.     2.     2.     2.     2.     2.
 2.     2.     2.     2.     2.     2.     2.     2.     2.     2.
 2.     2.     1.9998 1.9993 1.9979 1.9965 1.9471 1.9432 1.7416 1.7367
 1.3345 1.3035]
entropy correction =  -0.023337439476191334
cycle= 4 E= -479.585920348138  delta_E= -12.6  |g|= 3.08  |ddm|=   11
HOMO:  -0.05933827387168035 LUMO:  -0.05834657233046178
Fermi energy:      -0.0587610219
[2.     2.     2.     2.     2.     2.     2.     2.     2.     2.
 2.     2.     2.     2.     2.     2.     2.     2.     2.     2.
 2.     2.     2.     2.     2.     2.     2.     2.     2.     2.
 2.     2.     2.     2.     2.     2.     2.     2.     1.9952 1.9886
 1.0577 0.9586]
entropy correction =  -0.01435902943114797
cycle= 5 E= -480.692882283189  delta_E= -1.11  |g|= 2.31  |ddm|= 2.58
HOMO:  -0.0891455498058848 LUMO:  -0.08619386496822416
Fermi energy:      -0.0862274399
[2.     2.     2.     2.     2.     2.     2.     2.     2.     2.
 2.     2.     2.     2.     2.     2.     2.     2.     2.     2.
 2.     2.     2.     2.     2.     2.     2.     2.     2.     2.
 2.     2.     2.     1.9996 1.9996 1.9987 1.9985 1.9947 1.9796 1.7489
 1.2838 0.9966]
entropy correction =  -0.018143353044552196
cycle= 6 E= -481.537345800993  delta_E= -0.844  |g|= 1.68  |ddm|= 1.24
HOMO:  -0.036723945372852736 LUMO:  -0.03666691925235657
Fermi energy:      -0.0355754632
[2.     2.     2.     2.     2.     2.     2.     2.     2.     2.
 2.     2.     2.     2.     2.     2.     2.     2.     2.     2.
 2.     2.     2.     2.     2.     2.     2.     2.     2.     2.
 2.     2.     1.9994 1.9978 1.9955 1.9897 1.9852 1.9687 1.9249 1.9157
 1.1143 1.1087]
entropy correction =  -0.0189240412419569
cycle= 7 E= -481.434005675675  delta_E= 0.103  |g|= 1.83  |ddm|= 1.23
HOMO:  -0.0317384200510474 LUMO:  -0.028304041170027775
Fermi energy:      -0.0293123723
[2.     2.     2.     2.     2.     2.     2.     2.     2.     2.
 2.     2.     2.     2.     2.     2.     2.     2.     2.     2.
 2.     2.     2.     2.     2.     2.     2.     2.     2.     2.
 2.     2.     1.9999 1.9995 1.9994 1.9991 1.9991 1.9983 1.9857 1.8815
 1.238  0.8995]
entropy correction =  -0.016403779535527643
cycle= 8 E= -481.849488238145  delta_E= -0.415  |g|= 1.29  |ddm|= 1.31
HOMO:  -0.010333376746467468 LUMO:  0.0007074607355822598
Fermi energy:      -0.0039251597
[2.     2.     2.     2.     2.     2.     2.     2.     2.     2.
 2.     2.     2.     2.     2.     2.     2.     2.     2.     2.
 2.     2.     2.     2.     2.     2.     2.     2.     2.     2.
 2.     1.9993 1.9989 1.9983 1.9929 1.9922 1.9893 1.984  1.9793 1.9331
 1.5655 0.5673]
entropy correction =  -0.01467709835179861
cycle= 9 E= -482.044475986677  delta_E= -0.195  |g|= 1.07  |ddm|= 0.906
HOMO:  0.06987607236222257 LUMO:  0.08736480552475155
Fermi energy:       0.0786614214
[2.     2.     2.     2.     2.     2.     2.     2.     2.     2.
 2.     2.     2.     2.     2.     2.     2.     2.     2.     2.
 2.     2.     2.     2.     2.     2.     2.     2.     2.     2.
 2.     2.     2.     2.     2.     2.     1.9997 1.9996 1.9983 1.9983
 1.7057 0.2985]
entropy correction =  -0.008565033887443218
cycle= 10 E= -482.032581870567  delta_E= 0.0119  |g|= 0.915  |ddm|= 1.43
HOMO:  0.08962837489531504 LUMO:  0.13004696666650578
Fermi energy:       0.1120849792
[2.     2.     2.     2.     2.     2.     2.     2.     2.     2.
 2.     2.     2.     2.     2.     2.     2.     2.     2.     2.
 2.     2.     2.     2.     2.     2.     2.     2.     2.     2.
 2.     2.     2.     2.     2.     2.     2.     1.9948 1.9914 1.9824
 1.9778 0.0536]
entropy correction =  -0.002806384782442717
cycle= 11 E= -481.373880256877  delta_E= 0.659  |g|=  1.9  |ddm|= 2.31
HOMO:  0.055026470059526 LUMO:  0.06384159079761528
Fermi energy:       0.0595089657
[2.     2.     2.     2.     2.     2.     2.     2.     2.     2.
 2.     2.     2.     2.     2.     2.     2.     2.     2.     2.
 2.     2.     2.     2.     2.     2.     2.     2.     2.     2.
 2.     2.     2.     1.9999 1.9995 1.9994 1.9993 1.9992 1.9982 1.992
 1.4205 0.592 ]
entropy correction =  -0.012547716300534082
cycle= 12 E= -482.271816530006  delta_E= -0.898  |g|= 0.277  |ddm|= 1.34
HOMO:  0.05643860939766877 LUMO:  0.07796708259573956
Fermi energy:       0.0675524745
[2.     2.     2.     2.     2.     2.     2.     2.     2.     2.
 2.     2.     2.     2.     2.     2.     2.     2.     2.     2.
 2.     2.     2.     2.     2.     2.     2.     2.     2.     2.
 2.     2.     2.     2.     2.     2.     1.9977 1.9957 1.995  1.9855
 1.8046 0.2215]
entropy correction =  -0.007530677379702311
cycle= 13 E= -482.060208343779  delta_E= 0.212  |g|= 0.773  |ddm|= 1.43
HOMO:  0.056178216645339216 LUMO:  0.06568034706628555
Fermi energy:       0.0610293925
[2.     2.     2.     2.     2.     2.     2.     2.     2.     2.
 2.     2.     2.     2.     2.     2.     2.     2.     2.     2.
 2.     2.     2.     2.     2.     2.     2.     2.     2.     2.
 2.     2.     1.9999 1.9998 1.9994 1.9992 1.9992 1.999  1.9978 1.9895
 1.4503 0.5658]
entropy correction =  -0.012402978302907078
cycle= 14 E= -482.267546250493  delta_E= -0.207  |g|= 0.281  |ddm|= 0.726
HOMO:  0.05930112599347857 LUMO:  0.06695698249504593
Fermi energy:       0.0631998465
[2.     2.     2.     2.     2.     2.     2.     2.     2.     2.
 2.     2.     2.     2.     2.     2.     2.     2.     2.     2.
 2.     2.     2.     2.     2.     2.     2.     2.     2.     2.
 2.     2.     1.9999 1.9998 1.9994 1.9994 1.9994 1.9993 1.9984 1.9921
 1.3712 0.641 ]
entropy correction =  -0.012948192709072959
cycle= 15 E= -482.288830978443  delta_E= -0.0213  |g|= 0.142  |ddm|= 0.204
HOMO:  0.060335189581156815 LUMO:  0.06854982973307636
Fermi energy:       0.0644944493
[2.     2.     2.     2.     2.     2.     2.     2.     2.     2.
 2.     2.     2.     2.     2.     2.     2.     2.     2.     2.
 2.     2.     2.     2.     2.     2.     2.     2.     2.     2.
 2.     2.     2.     1.9998 1.9996 1.9995 1.9994 1.9994 1.9988 1.9946
 1.3935 0.6153]
entropy correction =  -0.012649979497779455
cycle= 16 E= -482.286904601198  delta_E= 0.00193  |g|= 0.167  |ddm|= 0.0792
HOMO:  0.06025941720353085 LUMO:  0.06764775010005104
Fermi energy:       0.0640073155
[2.     2.     2.     2.     2.     2.     2.     2.     2.     2.
 2.     2.     2.     2.     2.     2.     2.     2.     2.     2.
 2.     2.     2.     2.     2.     2.     2.     2.     2.     2.
 2.     2.     2.     1.9998 1.9996 1.9995 1.9994 1.9992 1.9991 1.9941
 1.3582 0.6512]
entropy correction =  -0.012946747453246515
cycle= 17 E= -482.294507326451  delta_E= -0.0076  |g|= 0.0877  |ddm|= 0.123
HOMO:  0.06084883361903256 LUMO:  0.06807282696192862
Fermi energy:       0.0645100754
[2.     2.     2.     2.     2.     2.     2.     2.     2.     2.
 2.     2.     2.     2.     2.     2.     2.     2.     2.     2.
 2.     2.     2.     2.     2.     2.     2.     2.     2.     2.
 2.     2.     2.     1.9998 1.9996 1.9995 1.9995 1.9993 1.9991 1.9946
 1.3506 0.6581]
entropy correction =  -0.012975286930317013
cycle= 18 E= -482.296571538118  delta_E= -0.00206  |g|= 0.0329  |ddm|= 0.0713
HOMO:  0.06113391112242001 LUMO:  0.06835676585266076
Fermi energy:       0.0647923579
[2.     2.     2.     2.     2.     2.     2.     2.     2.     2.
 2.     2.     2.     2.     2.     2.     2.     2.     2.     2.
 2.     2.     2.     2.     2.     2.     2.     2.     2.     2.
 2.     2.     2.     1.9998 1.9996 1.9995 1.9995 1.9993 1.9992 1.9949
 1.3504 0.6579]
entropy correction =  -0.01296282525594656
cycle= 19 E= -482.296935691012  delta_E= -0.000364  |g|= 0.0135  |ddm|= 0.0338
HOMO:  0.06119730727274973 LUMO:  0.06843033122572298
Fermi energy:       0.0648595294
[2.     2.     2.     2.     2.     2.     2.     2.     2.     2.
 2.     2.     2.     2.     2.     2.     2.     2.     2.     2.
 2.     2.     2.     2.     2.     2.     2.     2.     2.     2.
 2.     2.     2.     1.9998 1.9996 1.9995 1.9995 1.9993 1.9992 1.995
 1.3507 0.6574]
entropy correction =  -0.012951982824261538
cycle= 20 E= -482.296785655085  delta_E= 0.00015  |g|= 0.0243  |ddm|= 0.0548
HOMO:  0.06124454865219977 LUMO:  0.06844552468569184
Fermi energy:       0.0648915484
[2.     2.     2.     2.     2.     2.     2.     2.     2.     2.
 2.     2.     2.     2.     2.     2.     2.     2.     2.     2.
 2.     2.     2.     2.     2.     2.     2.     2.     2.     2.
 2.     2.     2.     1.9998 1.9996 1.9995 1.9995 1.9993 1.9992 1.9949
 1.3493 0.6588]
entropy correction =  -0.012967051103318432
cycle= 21 E= -482.297009057674  delta_E= -0.000223  |g|= 0.00164  |ddm|= 0.0331
HOMO:  0.061224146348956045 LUMO:  0.06842042778572689
Fermi energy:       0.0648688810
[2.     2.     2.     2.     2.     2.     2.     2.     2.     2.
 2.     2.     2.     2.     2.     2.     2.     2.     2.     2.
 2.     2.     2.     2.     2.     2.     2.     2.     2.     2.
 2.     2.     2.     1.9998 1.9996 1.9995 1.9995 1.9993 1.9992 1.9949
 1.3491 0.6591]
entropy correction =  -0.012969079620125876
cycle= 22 E= -482.29701023436  delta_E= -1.18e-06  |g|= 0.000475  |ddm|= 0.0031
HOMO:  0.0612165358705839 LUMO:  0.06841620980211284
Fermi energy:       0.0648628034
[2.     2.     2.     2.     2.     2.     2.     2.     2.     2.
 2.     2.     2.     2.     2.     2.     2.     2.     2.     2.
 2.     2.     2.     2.     2.     2.     2.     2.     2.     2.
 2.     2.     2.     1.9998 1.9996 1.9995 1.9995 1.9993 1.9992 1.9949
 1.3493 0.6589]
entropy correction =  -0.012967028929245457
cycle= 23 E= -482.297010284208  delta_E= -4.98e-08  |g|= 0.000306  |ddm|= 0.000873
HOMO:  0.06121217248681955 LUMO:  0.06841131151318601
Fermi energy:       0.0648582839
[2.     2.     2.     2.     2.     2.     2.     2.     2.     2.
 2.     2.     2.     2.     2.     2.     2.     2.     2.     2.
 2.     2.     2.     2.     2.     2.     2.     2.     2.     2.
 2.     2.     2.     1.9998 1.9996 1.9995 1.9995 1.9993 1.9992 1.9949
 1.3493 0.6589]
entropy correction =  -0.012967844874111054
cycle= 24 E= -482.297010287942  delta_E= -3.73e-09  |g|= 0.000268  |ddm|= 0.000349
HOMO:  0.06121147137409111 LUMO:  0.06841074844277711
Fermi energy:       0.0648576491
[2.     2.     2.     2.     2.     2.     2.     2.     2.     2.
 2.     2.     2.     2.     2.     2.     2.     2.     2.     2.
 2.     2.     2.     2.     2.     2.     2.     2.     2.     2.
 2.     2.     2.     1.9998 1.9996 1.9995 1.9995 1.9993 1.9992 1.9949
 1.3493 0.6589]
entropy correction =  -0.012967784457162988
cycle= 25 E= -482.297010314489  delta_E= -2.65e-08  |g|= 2.89e-05  |ddm|= 0.000432
HOMO:  0.06121108351579357 LUMO:  0.06841037897364777
Fermi energy:       0.0648572733
[2.     2.     2.     2.     2.     2.     2.     2.     2.     2.
 2.     2.     2.     2.     2.     2.     2.     2.     2.     2.
 2.     2.     2.     2.     2.     2.     2.     2.     2.     2.
 2.     2.     2.     1.9998 1.9996 1.9995 1.9995 1.9993 1.9992 1.9949
 1.3493 0.6589]
entropy correction =  -0.01296779488222047
cycle= 26 E= -482.29701031476  delta_E= -2.71e-10  |g|= 6.77e-06  |ddm|= 3.23e-05
HOMO:  0.06121112483099394 LUMO:  0.06841041305898854
Fermi energy:       0.0648573123
[2.     2.     2.     2.     2.     2.     2.     2.     2.     2.
 2.     2.     2.     2.     2.     2.     2.     2.     2.     2.
 2.     2.     2.     2.     2.     2.     2.     2.     2.     2.
 2.     2.     2.     1.9998 1.9996 1.9995 1.9995 1.9993 1.9992 1.9949
 1.3493 0.6589]
entropy correction =  -0.012967804444712695
Extra cycle  E= -482.297010308465  delta_E= 6.29e-09  |g|= 0.000137  |ddm|= 0.000194
converged SCF energy = -482.297010308465
#INFO: **** input file is /tigress/xingz/pydmfet/examples/research/proj/Cu2/dmfet/Cu2.py ****
from pydmfet import locints, sdmfet, oep, tools, dfet_ao, proj_ao
from pydmfet.dfet_ao import dfet
from pydmfet.qcwrap.pyscf_rks_ao import rks_ao
from pyscf import gto, scf,dft, ao2mo,cc
import numpy as np
from pyscf.tools import molden, cubegen
import copy,time
from pydmfet.tools.sym import h_lattice_sym_tab
import time

t0 = (time.clock(), time.time())


bas = 'lanl2dz'
ecp = 'lanl2dz'
temp = 0.005


mol = gto.Mole()
mol.atom = open('Cu2.xyz').read()
mol.basis = bas
mol.ecp = ecp
mol.charge = -2
mol.build(max_memory = 16000, verbose=4)

mf = rks_ao(mol,smear_sigma = temp)
mf.xc = 'pbe,pbe'
mf.max_cycle = 50
mf.scf(dm0=None)


natoms = mol.natm
impAtom = np.zeros([natoms], dtype=int)
for i in range(2):
    impAtom[i] = 1

ghost_frag = 1-impAtom
ghost_env = 1-ghost_frag

mol_frag = gto.Mole()
mol_frag.atom = tools.add_ghost(mol.atom, ghost_frag)
mol_frag.basis = bas
mol_frag.ecp = ecp
mol_frag.charge = 4
mol_frag.build(max_memory = 16000,verbose = 4)

mol_env = gto.Mole()
mol_env.atom = tools.add_ghost(mol.atom, ghost_env)
mol_env.basis =  bas
mol_env.ecp = ecp
mol_env.charge = -6
mol_env.build(max_memory = 16000,verbose = 4)

Ne_frag = 34
Ne_env = 48

boundary_atoms = None
boundary_atoms2 =None

umat = None
umat = np.load("umat.npy")

params = oep.OEPparams(algorithm = 'leastsq', opt_method = 'L-BFGS-B', diffP_tol=1e-3, outer_maxit = 20)
params.options['ftol'] = 1e-9
params.options['gtol'] = 1e-3
params.options['maxiter'] = 50
params.options['svd_thresh'] = 1e-2

theDMFET = dfet.DFET(mf, mol_frag, mol_env,Ne_frag,Ne_env,\
                     boundary_atoms=boundary_atoms, boundary_atoms2=boundary_atoms2,umat = umat,\
                     oep_params=params, smear_sigma=temp, ecw_method = 'hf',mf_method = mf.xc, plot_dens=True,\
                     scf_max_cycle = 200)

umat = theDMFET.embedding_potential()

t1 = tools.timer("total calc time", t0)
#INFO: ******************** input file end ********************


System: uname_result(system='Linux', node='tiger-h24c1n17', release='3.10.0-957.27.2.el7.x86_64', version='#1 SMP Tue Jul 30 11:12:20 EDT 2019', machine='x86_64', processor='x86_64')  Threads 40
Python 3.7.0 (default, Jun 28 2018, 13:15:42) 
[GCC 7.2.0]
numpy 1.16.4  scipy 1.4.0.dev0+0f78e0f
Date: Sat Sep  7 19:11:15 2019
PySCF version 1.5
PySCF path  /home/xingz/.local/lib/python3.7/site-packages/pyscf

[CONFIG] conf_file None
[INPUT] verbose = 4
[INPUT] num. atoms = 8
[INPUT] num. electrons = 34
[INPUT] charge = 4
[INPUT] spin (= nelec alpha-beta = 2S) = 0
[INPUT] symmetry False subgroup None
[INPUT] Mole.unit = angstrom
[INPUT]  1 Cu    -0.441980000000   1.042360000000  -0.035730000000 AA   -0.835221152535   1.969774923202  -0.067519914431 Bohr
[INPUT]  2 Cu     2.942440000000   1.248890000000   0.035730000000 AA    5.560405737965   2.360060059708   0.067519914431 Bohr
[INPUT]  3 GHOST-Cl  -1.897990000000  -0.682570000000   0.075050000000 AA   -3.586681287163  -1.289870360844   0.141823945649 Bohr
[INPUT]  4 GHOST-Cl  -2.090880000000   2.577820000000  -0.212080000000 AA   -3.951190559331   4.871373798426  -0.400773116498 Bohr
[INPUT]  5 GHOST-Cl   1.158810000000   2.690810000000  -0.136080000000 AA    2.189833530407   5.084893953241  -0.257153931031 Bohr
[INPUT]  6 GHOST-Cl   1.341650000000  -0.399560000000   0.136080000000 AA    2.535351055023  -0.755058970331   0.257153931031 Bohr
[INPUT]  7 GHOST-Cl   4.398440000000   2.973820000000  -0.075050000000 AA    8.311846975332   5.619705343754  -0.141823945649 Bohr
[INPUT]  8 GHOST-Cl   4.591340000000  -0.286580000000   0.212080000000 AA    8.676375144761  -0.541557712778   0.400773116498 Bohr

nuclear repulsion = 56.3275059639967
number of shells = 38
number of NR pGTOs = 162
number of NR cGTOs = 92
basis = lanl2dz
ecp = lanl2dz
CPU time:       585.75
#INFO: **** input file is /tigress/xingz/pydmfet/examples/research/proj/Cu2/dmfet/Cu2.py ****
from pydmfet import locints, sdmfet, oep, tools, dfet_ao, proj_ao
from pydmfet.dfet_ao import dfet
from pydmfet.qcwrap.pyscf_rks_ao import rks_ao
from pyscf import gto, scf,dft, ao2mo,cc
import numpy as np
from pyscf.tools import molden, cubegen
import copy,time
from pydmfet.tools.sym import h_lattice_sym_tab
import time

t0 = (time.clock(), time.time())


bas = 'lanl2dz'
ecp = 'lanl2dz'
temp = 0.005


mol = gto.Mole()
mol.atom = open('Cu2.xyz').read()
mol.basis = bas
mol.ecp = ecp
mol.charge = -2
mol.build(max_memory = 16000, verbose=4)

mf = rks_ao(mol,smear_sigma = temp)
mf.xc = 'pbe,pbe'
mf.max_cycle = 50
mf.scf(dm0=None)


natoms = mol.natm
impAtom = np.zeros([natoms], dtype=int)
for i in range(2):
    impAtom[i] = 1

ghost_frag = 1-impAtom
ghost_env = 1-ghost_frag

mol_frag = gto.Mole()
mol_frag.atom = tools.add_ghost(mol.atom, ghost_frag)
mol_frag.basis = bas
mol_frag.ecp = ecp
mol_frag.charge = 4
mol_frag.build(max_memory = 16000,verbose = 4)

mol_env = gto.Mole()
mol_env.atom = tools.add_ghost(mol.atom, ghost_env)
mol_env.basis =  bas
mol_env.ecp = ecp
mol_env.charge = -6
mol_env.build(max_memory = 16000,verbose = 4)

Ne_frag = 34
Ne_env = 48

boundary_atoms = None
boundary_atoms2 =None

umat = None
umat = np.load("umat.npy")

params = oep.OEPparams(algorithm = 'leastsq', opt_method = 'L-BFGS-B', diffP_tol=1e-3, outer_maxit = 20)
params.options['ftol'] = 1e-9
params.options['gtol'] = 1e-3
params.options['maxiter'] = 50
params.options['svd_thresh'] = 1e-2

theDMFET = dfet.DFET(mf, mol_frag, mol_env,Ne_frag,Ne_env,\
                     boundary_atoms=boundary_atoms, boundary_atoms2=boundary_atoms2,umat = umat,\
                     oep_params=params, smear_sigma=temp, ecw_method = 'hf',mf_method = mf.xc, plot_dens=True,\
                     scf_max_cycle = 200)

umat = theDMFET.embedding_potential()

t1 = tools.timer("total calc time", t0)
#INFO: ******************** input file end ********************


System: uname_result(system='Linux', node='tiger-h24c1n17', release='3.10.0-957.27.2.el7.x86_64', version='#1 SMP Tue Jul 30 11:12:20 EDT 2019', machine='x86_64', processor='x86_64')  Threads 40
Python 3.7.0 (default, Jun 28 2018, 13:15:42) 
[GCC 7.2.0]
numpy 1.16.4  scipy 1.4.0.dev0+0f78e0f
Date: Sat Sep  7 19:11:15 2019
PySCF version 1.5
PySCF path  /home/xingz/.local/lib/python3.7/site-packages/pyscf

[CONFIG] conf_file None
[INPUT] verbose = 4
[INPUT] num. atoms = 8
[INPUT] num. electrons = 48
[INPUT] charge = -6
[INPUT] spin (= nelec alpha-beta = 2S) = 0
[INPUT] symmetry False subgroup None
[INPUT] Mole.unit = angstrom
[INPUT]  1 GHOST-Cu  -0.441980000000   1.042360000000  -0.035730000000 AA   -0.835221152535   1.969774923202  -0.067519914431 Bohr
[INPUT]  2 GHOST-Cu   2.942440000000   1.248890000000   0.035730000000 AA    5.560405737965   2.360060059708   0.067519914431 Bohr
[INPUT]  3 Cl    -1.897990000000  -0.682570000000   0.075050000000 AA   -3.586681287163  -1.289870360844   0.141823945649 Bohr
[INPUT]  4 Cl    -2.090880000000   2.577820000000  -0.212080000000 AA   -3.951190559331   4.871373798426  -0.400773116498 Bohr
[INPUT]  5 Cl     1.158810000000   2.690810000000  -0.136080000000 AA    2.189833530407   5.084893953241  -0.257153931031 Bohr
[INPUT]  6 Cl     1.341650000000  -0.399560000000   0.136080000000 AA    2.535351055023  -0.755058970331   0.257153931031 Bohr
[INPUT]  7 Cl     4.398440000000   2.973820000000  -0.075050000000 AA    8.311846975332   5.619705343754  -0.141823945649 Bohr
[INPUT]  8 Cl     4.591340000000  -0.286580000000   0.212080000000 AA    8.676375144761  -0.541557712778   0.400773116498 Bohr

nuclear repulsion = 93.9042733852809
number of shells = 38
number of NR pGTOs = 162
number of NR cGTOs = 92
basis = lanl2dz
ecp = lanl2dz
CPU time:       586.18


******** <class 'pydmfet.dfet_ao.scf.EmbedSCF'> flags ********
method = EmbedSCF-RKS-RHF
initial guess = minao
damping factor = 0
level shift factor = 0
DIIS = <class 'pyscf.scf.diis.CDIIS'>
DIIS start cycle = 1
DIIS space = 8
SCF tol = 1e-09
SCF gradient tol = None
max. SCF cycles = 200
direct_scf = False
chkfile to save SCF result = /tmp/tmp4xqn2otq
max_memory 16000 MB (current use 509 MB)
XC functionals = pbe,pbe
small_rho_cutoff = 1e-07
radial grids: 
    Treutler-Ahlrichs (JCP 102, 346 (M4)) radial grids
    
becke partition: Becke, JCP, 88, 2547 (1988)
pruning grids: <function nwchem_prune at 0x2b41be914400>
grids dens level: 3
symmetrized grids: False
atomic radii adjust function: <function treutler_atomic_radii_adjust at 0x2b41be914378>
Set gradient conv threshold to 3.16228e-05
tot grids = 120648
init E= -387.316346443781
HOMO: 0.2039791121361115 LUMO: 0.2066899038087405
mo_energy:
[-2.6657 -2.6644 -1.266  -1.2656 -1.2646 -1.2642 -1.2623 -1.2607 -0.0752
 -0.0426 -0.0038  0.0147  0.0482  0.0653  0.0709  0.1243  0.204   0.2067
  0.2279  0.236   0.2364  0.2876]
e_fermi =  0.20518579604700712
[2.    2.    2.    2.    2.    2.    2.    2.    2.    2.    2.    2.
 2.    2.    2.    2.    1.12  0.851 0.021 0.004 0.004]
entropy correction =  -0.01455514547778101
cycle= 1 E= -326.872637731173  delta_E= 60.4  |g|= 12.7  |ddm|= 7.58
HOMO: -8.425929613251277 LUMO: -8.41524764401319
mo_energy:
[-12.783 -12.782 -11.134 -11.126 -11.121 -11.12  -11.111 -11.111  -8.437
  -8.436  -8.433  -8.432  -8.431  -8.429  -8.429  -8.428  -8.426  -8.415
  -3.073  -3.06   -2.452  -2.362]
e_fermi =  -8.415749054142655
[2.    2.    2.    2.    2.    2.    2.    2.    1.973 1.965 1.943 1.923
 1.904 1.868 1.858 1.846 1.769 0.95 ]
entropy correction =  -0.024637237760423637
cycle= 2 E= -384.73749269769  delta_E= -57.9  |g|= 4.22  |ddm|= 7.64
HOMO: -2.102924462305509 LUMO: -2.100725477114917
mo_energy:
[-6.171 -6.091 -4.731 -4.71  -4.688 -4.651 -4.631 -4.612 -2.19  -2.189
 -2.176 -2.175 -2.171 -2.118 -2.117 -2.104 -2.103 -2.101 -1.45  -1.38
 -1.076 -1.047]
e_fermi =  -2.098671946223746
[2.    2.    2.    2.    2.    2.    2.    2.    2.    2.    2.    2.
 2.    1.958 1.955 1.483 1.401 1.203]
entropy correction =  -0.020641516327942044
cycle= 3 E= -388.45772972034  delta_E= -3.72  |g|= 1.76  |ddm|= 3.27
HOMO: -1.047471681998577 LUMO: -1.0459876727863588
mo_energy:
[-6.725 -5.288 -5.241 -5.2   -4.861 -3.424 -3.419 -3.418 -2.703 -2.697
 -2.655 -2.651 -2.636 -1.501 -1.118 -1.071 -1.047 -1.046 -1.04  -1.026
 -1.022 -0.995]
e_fermi =  -1.0483991149129506
[2.    2.    2.    2.    2.    2.    2.    2.    2.    2.    2.    2.
 2.    2.    2.    1.98  0.908 0.763 0.314 0.024 0.01 ]
entropy correction =  -0.01941597469925194
cycle= 4 E= -367.972513867977  delta_E= 20.5  |g|= 10.1  |ddm|= 4.54
HOMO: -1.344133476295513 LUMO: -1.3314119358342276
mo_energy:
[-6.249 -5.238 -4.82  -4.776 -4.733 -3.794 -3.792 -3.782 -2.26  -2.255
 -2.211 -2.21  -2.195 -1.356 -1.351 -1.344 -1.344 -1.331 -1.327 -1.103
 -0.949 -0.947]
e_fermi =  -1.3363172976981785
[2.    2.    2.    2.    2.    2.    2.    2.    2.    2.    2.    2.
 2.    1.963 1.89  1.668 1.654 0.545 0.28 ]
entropy correction =  -0.022068703239426616
cycle= 5 E= -383.687687169166  delta_E= -15.7  |g|= 4.59  |ddm|= 2.58
HOMO: -1.4938367670073336 LUMO: -1.4868597494947529
mo_energy:
[-6.019 -5.422 -4.593 -4.552 -4.51  -3.982 -3.975 -3.949 -2.049 -2.045
 -2.002 -2.001 -1.988 -1.498 -1.496 -1.496 -1.494 -1.487 -1.285 -1.131
 -0.93  -0.916]
e_fermi =  -1.4863138472390696
[2.    2.    2.    2.    2.    2.    2.    2.    2.    2.    2.    2.
 2.    1.823 1.751 1.735 1.637 1.055]
entropy correction =  -0.022316954025811048
cycle= 6 E= -388.126953572086  delta_E= -4.44  |g|= 2.39  |ddm|= 2.01
HOMO: -1.51314385318218 LUMO: -1.504224040915584
mo_energy:
[-5.79  -5.459 -4.363 -4.331 -4.29  -4.009 -4.004 -3.994 -1.845 -1.843
 -1.805 -1.798 -1.791 -1.526 -1.522 -1.521 -1.513 -1.504 -1.243 -1.118
 -0.905 -0.895]
e_fermi =  -1.5070931229006288
[2.    2.    2.    2.    2.    2.    2.    2.    2.    2.    2.    2.
 2.    1.951 1.901 1.887 1.541 0.721]
entropy correction =  -0.01722369098746179
cycle= 7 E= -388.457114267168  delta_E= -0.33  |g|=  1.9  |ddm|= 0.545
HOMO: -1.5969697287109166 LUMO: -1.5922272451344717
mo_energy:
[-5.719 -5.553 -4.289 -4.26  -4.225 -4.118 -4.108 -4.059 -1.777 -1.774
 -1.742 -1.733 -1.728 -1.614 -1.604 -1.6   -1.597 -1.592 -1.222 -1.141
 -0.902 -0.885]
e_fermi =  -1.5918847456429381
[2.    2.    2.    2.    2.    2.    2.    2.    2.    2.    2.    2.
 2.    1.978 1.848 1.671 1.469 1.034]
entropy correction =  -0.020475330635415664
cycle= 8 E= -388.54835478795  delta_E= -0.0912  |g|= 1.69  |ddm|= 1.39
HOMO: -1.5768970303695309 LUMO: -1.575448249154619
mo_energy:
[-5.8   -5.549 -4.344 -4.341 -4.331 -4.112 -4.091 -4.067 -1.833 -1.831
 -1.83  -1.822 -1.813 -1.612 -1.612 -1.588 -1.577 -1.575 -1.244 -1.131
 -0.909 -0.898]
e_fermi =  -1.575448643628553
[2.    2.    2.    2.    2.    2.    2.    2.    2.    2.    2.    2.
 2.    1.999 1.999 1.859 1.144 1.   ]
entropy correction =  -0.01642037404582663
cycle= 9 E= -388.510953320541  delta_E= 0.0374  |g|= 1.75  |ddm|= 1.61
HOMO: -1.5669835931878262 LUMO: -1.5665680448889028
mo_energy:
[-5.693 -5.542 -4.235 -4.234 -4.232 -4.135 -4.077 -4.039 -1.74  -1.74
 -1.735 -1.721 -1.712 -1.617 -1.603 -1.6   -1.567 -1.567 -1.214 -1.133
 -0.897 -0.883]
e_fermi =  -1.5667547675982394
[2.    2.    2.    2.    2.    2.    2.    2.    2.    2.    2.    2.
 2.    2.    1.999 1.997 1.023 0.981]
entropy correction =  -0.014024428081368901
cycle= 10 E= -388.544788234072  delta_E= -0.0338  |g|= 1.64  |ddm|=  1.7
HOMO: -1.5585279790429711 LUMO: -1.5516224787258945
mo_energy:
[-5.715 -5.511 -4.257 -4.257 -4.251 -4.064 -4.051 -4.049 -1.761 -1.761
 -1.755 -1.739 -1.731 -1.576 -1.576 -1.566 -1.559 -1.552 -1.219 -1.129
 -0.898 -0.885]
e_fermi =  -1.5538556059405872
[2.    2.    2.    2.    2.    2.    2.    2.    2.    2.    2.    2.
 2.    1.978 1.976 1.829 1.436 0.78 ]
entropy correction =  -0.016798819460971528
cycle= 11 E= -388.545503155193  delta_E= -0.000715  |g|= 1.74  |ddm|= 1.51
HOMO: -1.4771696807761543 LUMO: -1.4661613868095846
mo_energy:
[-5.762 -5.438 -4.309 -4.308 -4.291 -4.029 -3.987 -3.928 -1.802 -1.798
 -1.798 -1.793 -1.784 -1.535 -1.535 -1.478 -1.477 -1.466 -1.239 -1.109
 -0.902 -0.895]
e_fermi =  -1.4696994567715798
[2.    2.    2.    2.    2.    2.    2.    2.    2.    2.    2.    2.
 2.    2.    2.    1.706 1.633 0.66 ]
entropy correction =  -0.015278413687579243
cycle= 12 E= -388.471005273381  delta_E= 0.0745  |g|= 1.87  |ddm|= 1.32
HOMO: -1.5604769645806753 LUMO: -1.558993950769887
mo_energy:
[-5.673 -5.526 -4.216 -4.214 -4.212 -4.095 -4.074 -4.039 -1.723 -1.722
 -1.717 -1.703 -1.695 -1.603 -1.603 -1.574 -1.56  -1.559 -1.21  -1.133
 -0.895 -0.88 ]
e_fermi =  -1.5592096486906135
[2.    2.    2.    2.    2.    2.    2.    2.    2.    2.    2.    2.
 2.    2.    2.    1.896 1.126 0.978]
entropy correction =  -0.01585269216925785
cycle= 13 E= -388.578233020952  delta_E= -0.107  |g|= 1.67  |ddm|= 0.591
HOMO: -1.593189851004938 LUMO: -1.5915822139219955
mo_energy:
[-5.645 -5.561 -4.188 -4.187 -4.184 -4.129 -4.106 -4.076 -1.698 -1.697
 -1.692 -1.677 -1.668 -1.633 -1.633 -1.605 -1.593 -1.592 -1.205 -1.138
 -0.894 -0.877]
e_fermi =  -1.5917655378735067
[2.    2.    2.    2.    2.    2.    2.    2.    2.    2.    2.    2.
 2.    2.    1.999 1.878 1.141 0.982]
entropy correction =  -0.016107139536788936
cycle= 14 E= -388.616316655145  delta_E= -0.0381  |g|= 1.59  |ddm|= 0.0927
HOMO: -1.629643936196123 LUMO: -1.6208454865974595
mo_energy:
[-5.606 -5.595 -4.173 -4.149 -4.14  -4.137 -4.133 -4.121 -1.674 -1.673
 -1.654 -1.652 -1.647 -1.646 -1.635 -1.633 -1.63  -1.621 -1.203 -1.14
 -0.894 -0.876]
e_fermi =  -1.6227235373447264
[2.    2.    2.    2.    2.    2.    2.    2.    2.    2.    1.996 1.994
 1.984 1.982 1.844 1.787 1.599 0.814]
entropy correction =  -0.019239748134610407
cycle= 15 E= -389.214038294016  delta_E= -0.598  |g|= 0.865  |ddm|= 1.44
HOMO: -1.636439936434679 LUMO: -1.6320724505678992
mo_energy:
[-5.599 -5.597 -4.16  -4.148 -4.147 -4.132 -4.13  -4.127 -1.657 -1.656
 -1.649 -1.648 -1.647 -1.644 -1.644 -1.637 -1.636 -1.632 -1.202 -1.14
 -0.894 -0.877]
e_fermi =  -1.6298872165157852
[2.    2.    2.    2.    2.    2.    2.    2.    1.992 1.99  1.954 1.945
 1.932 1.897 1.881 1.62  1.575 1.215]
entropy correction =  -0.025457405419863344
cycle= 16 E= -389.485555735396  delta_E= -0.272  |g|= 0.296  |ddm|= 0.759
HOMO: -1.6021057207062772 LUMO: -1.6007439807336208
mo_energy:
[-5.595 -5.557 -4.16  -4.152 -4.12  -4.11  -4.101 -4.071 -1.656 -1.648
 -1.641 -1.639 -1.633 -1.621 -1.618 -1.606 -1.602 -1.601 -1.2   -1.137
 -0.892 -0.876]
e_fermi =  -1.5990407550870656
[2.    2.    2.    2.    2.    2.    2.    2.    2.    2.    2.    1.999
 1.998 1.977 1.952 1.609 1.297 1.169]
entropy correction =  -0.02012602444786511
cycle= 17 E= -388.664938359824  delta_E= 0.821  |g|= 1.52  |ddm|= 1.16
HOMO: -1.5705243587301092 LUMO: -1.5681894161150836
mo_energy:
[-5.597 -5.524 -4.161 -4.153 -4.105 -4.098 -4.069 -4.038 -1.658 -1.65
 -1.645 -1.643 -1.638 -1.598 -1.592 -1.579 -1.571 -1.568 -1.2   -1.133
 -0.891 -0.876]
e_fermi =  -1.568204150008226
[2.    2.    2.    2.    2.    2.    2.    2.    2.    2.    2.    2.
 2.    1.994 1.983 1.796 1.228 0.999]
entropy correction =  -0.0175782703838521
cycle= 18 E= -388.625262069874  delta_E= 0.0397  |g|= 1.57  |ddm|= 0.512
HOMO: -1.5671199305247778 LUMO: -1.5632245774833202
mo_energy:
[-5.588 -5.518 -4.153 -4.145 -4.098 -4.084 -4.068 -4.035 -1.651 -1.642
 -1.638 -1.636 -1.632 -1.592 -1.589 -1.571 -1.567 -1.563 -1.199 -1.132
 -0.89  -0.875]
e_fermi =  -1.563344873987537
[2.    2.    2.    2.    2.    2.    2.    2.    2.    2.    2.    2.
 2.    1.993 1.988 1.671 1.361 0.988]
entropy correction =  -0.018272378614638925
cycle= 19 E= -388.642388404727  delta_E= -0.0171  |g|= 1.58  |ddm|= 0.655
HOMO: -1.55165011900957 LUMO: -1.5482973436224863
mo_energy:
[-5.608 -5.501 -4.173 -4.164 -4.115 -4.07  -4.053 -4.012 -1.669 -1.661
 -1.655 -1.653 -1.648 -1.576 -1.571 -1.557 -1.552 -1.548 -1.202 -1.13
 -0.891 -0.877]
e_fermi =  -1.5481746420314335
[2.    2.    2.    2.    2.    2.    2.    2.    2.    2.    2.    2.
 2.    1.992 1.979 1.683 1.334 1.012]
entropy correction =  -0.0185184085483865
cycle= 20 E= -388.612896109942  delta_E= 0.0295  |g|= 1.62  |ddm|= 0.384
HOMO: -1.5571455850613345 LUMO: -1.553036762634222
mo_energy:
[-5.602 -5.508 -4.167 -4.159 -4.109 -4.078 -4.064 -4.015 -1.664 -1.656
 -1.65  -1.648 -1.643 -1.584 -1.578 -1.563 -1.557 -1.553 -1.202 -1.131
 -0.891 -0.877]
e_fermi =  -1.5535280963448777
[2.    2.    2.    2.    2.    2.    2.    2.    2.    2.    2.    2.
 2.    1.995 1.985 1.722 1.347 0.951]
entropy correction =  -0.01787560348132788
cycle= 21 E= -388.616297540641  delta_E= -0.0034  |g|=  1.6  |ddm|= 0.177
HOMO: -1.5785041775209965 LUMO: -1.5749611773864944
mo_energy:
[-5.583 -5.534 -4.148 -4.139 -4.107 -4.09  -4.086 -4.039 -1.646 -1.638
 -1.632 -1.63  -1.625 -1.607 -1.6   -1.587 -1.579 -1.575 -1.199 -1.134
 -0.891 -0.876]
e_fermi =  -1.5757184263039707
[2.    2.    2.    2.    2.    2.    2.    2.    2.    2.    2.    2.
 2.    1.997 1.986 1.822 1.272 0.924]
entropy correction =  -0.017024151874307444
cycle= 22 E= -388.635967126763  delta_E= -0.0197  |g|= 1.54  |ddm|= 0.368
HOMO: -1.5971748285037348 LUMO: -1.5942434111182777
mo_energy:
[-5.57  -5.556 -4.134 -4.131 -4.126 -4.107 -4.078 -4.06  -1.633 -1.628
 -1.625 -1.621 -1.62  -1.618 -1.614 -1.608 -1.597 -1.594 -1.198 -1.135
 -0.891 -0.876]
e_fermi =  -1.5945730080216487
[2.    2.    2.    2.    2.    2.    2.    2.    1.999 1.997 1.996 1.989
 1.987 1.98  1.956 1.873 1.254 0.967]
entropy correction =  -0.01850507201320529
cycle= 23 E= -388.782550572521  delta_E= -0.147  |g|= 1.37  |ddm|= 0.183
HOMO: -1.6040254642823635 LUMO: -1.6003774039022123
mo_energy:
[-5.563 -5.553 -4.133 -4.117 -4.113 -4.106 -4.072 -4.069 -1.634 -1.63
 -1.613 -1.61  -1.608 -1.607 -1.606 -1.606 -1.604 -1.6   -1.197 -1.134
 -0.89  -0.875]
e_fermi =  -1.5961235961167715
[2.    2.    2.    2.    2.    2.    2.    2.    1.999 1.998 1.936 1.881
 1.829 1.786 1.772 1.739 1.659 1.401]
entropy correction =  -0.028220627970482286
cycle= 24 E= -389.495983237957  delta_E= -0.713  |g|= 0.109  |ddm|= 0.789
HOMO: -1.5975112585384015 LUMO: -1.5898080218215689
mo_energy:
[-5.573 -5.568 -4.144 -4.119 -4.117 -4.114 -4.106 -4.082 -1.646 -1.64
 -1.639 -1.635 -1.631 -1.623 -1.615 -1.607 -1.598 -1.59  -1.199 -1.136
 -0.891 -0.874]
e_fermi =  -1.5928281910686124
[2.    2.    2.    2.    2.    2.    2.    2.    2.    2.    2.    2.
 1.999 1.995 1.975 1.888 1.437 0.707]
entropy correction =  -0.015520362620194406
cycle= 25 E= -388.899808841489  delta_E= 0.596  |g|= 1.25  |ddm|= 1.38
HOMO: -1.6093099329187428 LUMO: -1.6047088029109637
mo_energy:
[-5.585 -5.572 -4.154 -4.128 -4.118 -4.116 -4.114 -4.101 -1.657 -1.655
 -1.637 -1.635 -1.633 -1.63  -1.616 -1.613 -1.609 -1.605 -1.2   -1.137
 -0.892 -0.874]
e_fermi =  -1.60434051769199
[2.    2.    2.    2.    2.    2.    2.    2.    2.    2.    1.997 1.996
 1.994 1.987 1.806 1.723 1.46  1.037]
entropy correction =  -0.020814108133845873
cycle= 26 E= -389.473303631652  delta_E= -0.573  |g|= 0.306  |ddm|= 0.976
HOMO: -1.6182753400802588 LUMO: -1.6100950923749864
mo_energy:
[-5.573 -5.57  -4.128 -4.126 -4.125 -4.112 -4.102 -4.097 -1.629 -1.628
 -1.628 -1.627 -1.625 -1.625 -1.622 -1.619 -1.618 -1.61  -1.199 -1.136
 -0.892 -0.875]
e_fermi =  -1.609538956781859
[2.    2.    2.    2.    2.    2.    2.    2.    1.959 1.956 1.948 1.937
 1.916 1.912 1.855 1.758 1.703 1.056]
entropy correction =  -0.02560965871443771
cycle= 27 E= -389.356606140849  delta_E= 0.117  |g|= 0.65  |ddm|= 0.749
HOMO: -1.618793174725248 LUMO: -1.612334266571409
mo_energy:
[-5.577 -5.566 -4.134 -4.123 -4.121 -4.118 -4.103 -4.09  -1.633 -1.632
 -1.629 -1.627 -1.621 -1.62  -1.62  -1.619 -1.619 -1.612 -1.199 -1.136
 -0.892 -0.875]
e_fermi =  -1.6095073707977798
[2.    2.    2.    2.    2.    2.    2.    2.    1.983 1.98  1.956 1.938
 1.83  1.783 1.779 1.745 1.73  1.275]
entropy correction =  -0.027618360112511675
cycle= 28 E= -389.227291813852  delta_E= 0.129  |g|= 0.893  |ddm|= 0.792
HOMO: -1.6191631875461343 LUMO: -1.6122617055102053
mo_energy:
[-5.577 -5.566 -4.134 -4.123 -4.121 -4.118 -4.103 -4.09  -1.633 -1.632
 -1.629 -1.627 -1.621 -1.62  -1.62  -1.619 -1.619 -1.612 -1.199 -1.136
 -0.892 -0.875]
e_fermi =  -1.6095718431951445
[2.    2.    2.    2.    2.    2.    2.    2.    1.983 1.979 1.956 1.938
 1.826 1.79  1.768 1.755 1.744 1.263]
entropy correction =  -0.02757225100319364
cycle= 29 E= -389.242487937296  delta_E= -0.0152  |g|= 0.869  |ddm|= 0.0238
HOMO: -1.6196483298565818 LUMO: -1.6132290475046558
mo_energy:
[-5.576 -5.567 -4.133 -4.124 -4.122 -4.119 -4.102 -4.091 -1.632 -1.631
 -1.628 -1.626 -1.622 -1.621 -1.62  -1.62  -1.62  -1.613 -1.199 -1.136
 -0.892 -0.875]
e_fermi =  -1.6101801488215213
[2.    2.    2.    2.    2.    2.    2.    2.    1.977 1.97  1.946 1.924
 1.84  1.797 1.763 1.749 1.738 1.296]
entropy correction =  -0.02811788289882225
cycle= 30 E= -389.307148677504  delta_E= -0.0647  |g|= 0.76  |ddm|= 0.0537
HOMO: -1.6174738080230304 LUMO: -1.608866608474583
mo_energy:
[-5.574 -5.566 -4.128 -4.124 -4.119 -4.114 -4.099 -4.097 -1.628 -1.627
 -1.627 -1.625 -1.624 -1.622 -1.622 -1.619 -1.617 -1.609 -1.199 -1.136
 -0.891 -0.875]
e_fermi =  -1.6084456999583894
[2.    2.    2.    2.    2.    2.    2.    2.    1.962 1.955 1.95  1.935
 1.908 1.882 1.875 1.773 1.718 1.042]
entropy correction =  -0.025594705377553265
cycle= 31 E= -389.277484448618  delta_E= 0.0297  |g|= 0.805  |ddm|= 0.342
HOMO: -1.6178881067699475 LUMO: -1.6113953931499299
mo_energy:
[-5.572 -5.568 -4.126 -4.123 -4.122 -4.117 -4.097 -4.095 -1.627 -1.626
 -1.625 -1.624 -1.623 -1.623 -1.622 -1.62  -1.618 -1.611 -1.199 -1.136
 -0.891 -0.875]
e_fermi =  -1.609256512275603
[2.    2.    2.    2.    2.    2.    2.    2.    1.943 1.936 1.909 1.893
 1.877 1.869 1.86  1.804 1.698 1.211]
entropy correction =  -0.028066638051528047
cycle= 32 E= -389.433023162995  delta_E= -0.156  |g|= 0.482  |ddm|= 0.215
HOMO: -1.6183671358185443 LUMO: -1.6137134001446043
mo_energy:
[-5.571 -5.569 -4.125 -4.124 -4.124 -4.12  -4.095 -4.092 -1.626 -1.624
 -1.623 -1.623 -1.623 -1.623 -1.621 -1.621 -1.618 -1.614 -1.199 -1.136
 -0.891 -0.875]
e_fermi =  -1.6097455881408185
[2.    2.    2.    2.    2.    2.    2.    2.    1.926 1.888 1.878 1.873
 1.87  1.868 1.817 1.806 1.697 1.377]
entropy correction =  -0.029943999818030947
cycle= 33 E= -389.516625032551  delta_E= -0.0836  |g|= 0.0729  |ddm|= 0.23
HOMO: -1.6165360262441106 LUMO: -1.6123230857447215
mo_energy:
[-5.571 -5.568 -4.124 -4.123 -4.12  -4.119 -4.098 -4.093 -1.625 -1.625
 -1.624 -1.623 -1.623 -1.622 -1.622 -1.622 -1.617 -1.612 -1.199 -1.136
 -0.891 -0.875]
e_fermi =  -1.6091799630290122
[2.    2.    2.    2.    2.    2.    2.    2.    1.922 1.912 1.904 1.882
 1.871 1.862 1.859 1.856 1.626 1.304]
entropy correction =  -0.028917695382618847
cycle= 34 E= -389.51804785849  delta_E= -0.00142  |g|= 0.0584  |ddm|= 0.203
HOMO: -1.6179226334869006 LUMO: -1.6131270385172243
mo_energy:
[-5.572 -5.57  -4.127 -4.123 -4.122 -4.12  -4.098 -4.095 -1.626 -1.625
 -1.625 -1.624 -1.624 -1.624 -1.624 -1.622 -1.618 -1.613 -1.199 -1.136
 -0.892 -0.875]
e_fermi =  -1.610266664778461
[2.    2.    2.    2.    2.    2.    2.    2.    1.912 1.903 1.898 1.89
 1.887 1.882 1.869 1.838 1.644 1.278]
entropy correction =  -0.028780619767832177
cycle= 35 E= -389.509446958254  delta_E= 0.0086  |g|= 0.161  |ddm|= 0.191
HOMO: -1.6184165139158777 LUMO: -1.614235679667434
mo_energy:
[-5.572 -5.57  -4.126 -4.125 -4.122 -4.121 -4.097 -4.095 -1.625 -1.625
 -1.625 -1.624 -1.624 -1.624 -1.624 -1.624 -1.618 -1.614 -1.199 -1.136
 -0.892 -0.875]
e_fermi =  -1.6107163494638266
[2.    2.    2.    2.    2.    2.    2.    2.    1.896 1.89  1.884 1.88
 1.875 1.869 1.862 1.859 1.647 1.338]
entropy correction =  -0.02948410086656039
cycle= 36 E= -389.519542742859  delta_E= -0.0101  |g|= 0.00741  |ddm|= 0.164
HOMO: -1.6179168810150921 LUMO: -1.6137454739349126
mo_energy:
[-5.571 -5.57  -4.125 -4.125 -4.121 -4.121 -4.096 -4.095 -1.625 -1.624
 -1.624 -1.624 -1.624 -1.624 -1.624 -1.623 -1.618 -1.614 -1.199 -1.136
 -0.892 -0.875]
e_fermi =  -1.6103164767358231
[2.    2.    2.    2.    2.    2.    2.    2.    1.893 1.889 1.883 1.881
 1.877 1.871 1.87  1.866 1.641 1.33 ]
entropy correction =  -0.029378650524499634
cycle= 37 E= -389.519657425918  delta_E= -0.000115  |g|= 0.00943  |ddm|= 0.0606
HOMO: -1.617580001890904 LUMO: -1.6134141462146558
mo_energy:
[-5.571 -5.569 -4.125 -4.124 -4.121 -4.12  -4.096 -4.095 -1.624 -1.624
 -1.624 -1.624 -1.624 -1.624 -1.623 -1.623 -1.618 -1.613 -1.199 -1.136
 -0.892 -0.875]
e_fermi =  -1.6100202212777044
[2.    2.    2.    2.    2.    2.    2.    2.    1.892 1.886 1.883 1.882
 1.879 1.874 1.872 1.866 1.639 1.327]
entropy correction =  -0.02933485272166243
cycle= 38 E= -389.519609160199  delta_E= 4.83e-05  |g|= 0.0149  |ddm|= 0.0332
HOMO: -1.6177419292401654 LUMO: -1.6135783556177532
mo_energy:
[-5.571 -5.569 -4.125 -4.124 -4.121 -4.12  -4.096 -4.095 -1.624 -1.624
 -1.624 -1.624 -1.624 -1.624 -1.623 -1.623 -1.618 -1.614 -1.199 -1.136
 -0.892 -0.875]
e_fermi =  -1.6101370064059786
[2.    2.    2.    2.    2.    2.    2.    2.    1.889 1.887 1.883 1.879
 1.878 1.874 1.871 1.868 1.641 1.331]
entropy correction =  -0.029396664584454796
cycle= 39 E= -389.519713058668  delta_E= -0.000104  |g|= 0.00192  |ddm|= 0.0241
HOMO: -1.6178583059234475 LUMO: -1.6136925706052
mo_energy:
[-5.571 -5.569 -4.125 -4.124 -4.121 -4.121 -4.096 -4.095 -1.624 -1.624
 -1.624 -1.624 -1.624 -1.624 -1.624 -1.623 -1.618 -1.614 -1.199 -1.136
 -0.892 -0.875]
e_fermi =  -1.610219742725682
[2.    2.    2.    2.    2.    2.    2.    2.    1.89  1.886 1.882 1.878
 1.877 1.872 1.87  1.867 1.643 1.334]
entropy correction =  -0.0294368492686354
cycle= 40 E= -389.519715420313  delta_E= -2.36e-06  |g|= 0.00157  |ddm|= 0.00629
HOMO: -1.6178662504982353 LUMO: -1.6137008818027716
mo_energy:
[-5.571 -5.57  -4.125 -4.124 -4.121 -4.121 -4.096 -4.095 -1.624 -1.624
 -1.624 -1.624 -1.624 -1.624 -1.624 -1.623 -1.618 -1.614 -1.199 -1.136
 -0.892 -0.875]
e_fermi =  -1.6102334963577787
[2.    2.    2.    2.    2.    2.    2.    2.    1.89  1.886 1.882 1.879
 1.877 1.873 1.87  1.867 1.643 1.333]
entropy correction =  -0.02942996950346962
cycle= 41 E= -389.519716133427  delta_E= -7.13e-07  |g|= 0.000836  |ddm|= 0.00141
HOMO: -1.617877251221059 LUMO: -1.6137115303641618
mo_energy:
[-5.571 -5.57  -4.125 -4.124 -4.121 -4.121 -4.096 -4.095 -1.624 -1.624
 -1.624 -1.624 -1.624 -1.624 -1.624 -1.623 -1.618 -1.614 -1.199 -1.136
 -0.892 -0.875]
e_fermi =  -1.6102399874646847
[2.    2.    2.    2.    2.    2.    2.    2.    1.89  1.886 1.882 1.878
 1.877 1.872 1.87  1.867 1.643 1.334]
entropy correction =  -0.02943524491052042
cycle= 42 E= -389.51971635404  delta_E= -2.21e-07  |g|= 0.000281  |ddm|= 0.00102
HOMO: -1.6178716035688236 LUMO: -1.6137062584107515
mo_energy:
[-5.571 -5.57  -4.125 -4.124 -4.121 -4.121 -4.096 -4.095 -1.624 -1.624
 -1.624 -1.624 -1.624 -1.624 -1.624 -1.623 -1.618 -1.614 -1.199 -1.136
 -0.892 -0.875]
e_fermi =  -1.6102363942103484
[2.    2.    2.    2.    2.    2.    2.    2.    1.89  1.886 1.882 1.878
 1.877 1.872 1.871 1.867 1.643 1.334]
entropy correction =  -0.029433109750420523
cycle= 43 E= -389.519716400858  delta_E= -4.68e-08  |g|= 3.63e-05  |ddm|= 0.000664
HOMO: -1.6178699269608712 LUMO: -1.6137044932702267
mo_energy:
[-5.571 -5.57  -4.125 -4.124 -4.121 -4.121 -4.096 -4.095 -1.624 -1.624
 -1.624 -1.624 -1.624 -1.624 -1.624 -1.623 -1.618 -1.614 -1.199 -1.136
 -0.892 -0.875]
e_fermi =  -1.6102369959498126
[2.    2.    2.    2.    2.    2.    2.    2.    1.89  1.886 1.882 1.878
 1.877 1.872 1.871 1.867 1.643 1.333]
entropy correction =  -0.029430163909336768
cycle= 44 E= -389.519716378264  delta_E= 2.26e-08  |g|= 0.000253  |ddm|= 0.000465
HOMO: -1.6178680006653507 LUMO: -1.6137025117688881
mo_energy:
[-5.571 -5.57  -4.125 -4.124 -4.121 -4.121 -4.096 -4.095 -1.624 -1.624
 -1.624 -1.624 -1.624 -1.624 -1.624 -1.623 -1.618 -1.614 -1.199 -1.136
 -0.892 -0.875]
e_fermi =  -1.6102352773755284
[2.    2.    2.    2.    2.    2.    2.    2.    1.89  1.886 1.882 1.878
 1.877 1.872 1.871 1.867 1.643 1.333]
entropy correction =  -0.029429892451905807
cycle= 45 E= -389.519716364415  delta_E= 1.38e-08  |g|= 0.000311  |ddm|= 0.000562
HOMO: -1.6178695481961272 LUMO: -1.6137040334631945
mo_energy:
[-5.571 -5.57  -4.125 -4.124 -4.121 -4.121 -4.096 -4.095 -1.624 -1.624
 -1.624 -1.624 -1.624 -1.624 -1.624 -1.623 -1.618 -1.614 -1.199 -1.136
 -0.892 -0.875]
e_fermi =  -1.6102357482646212
[2.    2.    2.    2.    2.    2.    2.    2.    1.89  1.886 1.882 1.878
 1.877 1.872 1.871 1.867 1.643 1.334]
entropy correction =  -0.029431167307803784
cycle= 46 E= -389.519716404638  delta_E= -4.02e-08  |g|= 1.78e-05  |ddm|= 0.00037
HOMO: -1.617869187736231 LUMO: -1.6137037423371383
mo_energy:
[-5.571 -5.57  -4.125 -4.124 -4.121 -4.121 -4.096 -4.095 -1.624 -1.624
 -1.624 -1.624 -1.624 -1.624 -1.624 -1.623 -1.618 -1.614 -1.199 -1.136
 -0.892 -0.875]
e_fermi =  -1.6102353616212086
[2.    2.    2.    2.    2.    2.    2.    2.    1.89  1.886 1.882 1.878
 1.877 1.872 1.871 1.867 1.643 1.334]
entropy correction =  -0.029431279019246796
cycle= 47 E= -389.519716405275  delta_E= -6.37e-10  |g|= 2.84e-05  |ddm|= 0.000143
HOMO: -1.6178705988537525 LUMO: -1.613704827468391
mo_energy:
[-5.571 -5.57  -4.125 -4.124 -4.121 -4.121 -4.096 -4.095 -1.624 -1.624
 -1.624 -1.624 -1.624 -1.624 -1.624 -1.623 -1.618 -1.614 -1.199 -1.136
 -0.892 -0.875]
e_fermi =  -1.6102364739324495
[2.    2.    2.    2.    2.    2.    2.    2.    1.89  1.886 1.882 1.878
 1.877 1.873 1.87  1.867 1.643 1.334]
entropy correction =  -0.02943136000246062
Extra cycle  E= -389.51971145584  delta_E= 4.95e-06  |g|= 0.00368  |ddm|= 0.00164
converged SCF energy = -389.51971145584


******** <class 'pydmfet.dfet_ao.scf.EmbedSCF'> flags ********
method = EmbedSCF-RKS-RHF
initial guess = minao
damping factor = 0
level shift factor = 0
DIIS = <class 'pyscf.scf.diis.CDIIS'>
DIIS start cycle = 1
DIIS space = 8
SCF tol = 1e-09
SCF gradient tol = None
max. SCF cycles = 200
direct_scf = False
chkfile to save SCF result = /tmp/tmpj3ffvsn0
max_memory 16000 MB (current use 2018 MB)
XC functionals = pbe,pbe
small_rho_cutoff = 1e-07
radial grids: 
    Treutler-Ahlrichs (JCP 102, 346 (M4)) radial grids
    
becke partition: Becke, JCP, 88, 2547 (1988)
pruning grids: <function nwchem_prune at 0x2b41be914400>
grids dens level: 3
symmetrized grids: False
atomic radii adjust function: <function treutler_atomic_radii_adjust at 0x2b41be914378>
Set gradient conv threshold to 3.16228e-05
tot grids = 139880
init E= -79.0707359659895
HOMO: 0.16294519186782636 LUMO: 0.17603613788448502
mo_energy:
[-0.33  -0.316 -0.308 -0.3   -0.293 -0.271 -0.055 -0.052 -0.041 -0.036
 -0.01   0.001  0.002  0.012  0.014  0.04   0.045  0.047  0.052  0.058
  0.062  0.067  0.101  0.163  0.176  0.213  0.265  0.266  0.279]
e_fermi =  0.16948822542892467
[2.    2.    2.    2.    2.    2.    2.    2.    2.    2.    2.    2.
 2.    2.    2.    2.    2.    2.    2.    2.    2.    2.    2.    1.575
 0.425]
entropy correction =  -0.010364787596070957
cycle= 1 E= -86.3351904306065  delta_E= -7.26  |g|= 2.54  |ddm|= 9.75
HOMO: 0.812987481651603 LUMO: 0.8373581796870739
mo_energy:
[-0.144 -0.139 -0.13  -0.127  0.264  0.277  0.333  0.335  0.338  0.34
  0.347  0.349  0.35   0.351  0.423  0.426  0.434  0.493  0.724  0.732
  0.736  0.747  0.767  0.813  0.837  0.865  0.892  0.902  0.91 ]
e_fermi =  0.82516242787268
[2.    2.    2.    2.    2.    2.    2.    2.    2.    2.    2.    2.
 2.    2.    2.    2.    2.    2.    2.    2.    2.    2.    2.    1.839
 0.16 ]
entropy correction =  -0.00562441791816043
cycle= 2 E= -87.1815322107075  delta_E= -0.846  |g|= 1.95  |ddm|= 5.65
HOMO: 0.8889598794307113 LUMO: 0.8937653066145514
mo_energy:
[0.225 0.23  0.24  0.242 0.407 0.422 0.648 0.649 0.653 0.656 0.664 0.666
 0.668 0.67  0.702 0.711 0.72  0.741 0.817 0.836 0.837 0.863 0.871 0.889
 0.894 0.898 0.902 0.914 0.945]
e_fermi =  0.8893944874716834
[2.    2.    2.    2.    2.    2.    2.    2.    2.    2.    2.    2.
 2.    2.    2.    2.    2.    2.    2.    2.    2.    1.99  1.948 1.043
 0.589 0.28  0.137 0.014]
entropy correction =  -0.021482391376918965
cycle= 3 E= -88.3642792423818  delta_E= -1.18  |g|= 0.249  |ddm|= 2.45
HOMO: 0.8207640208292881 LUMO: 0.8590853246940665
mo_energy:
[0.197 0.202 0.211 0.214 0.302 0.32  0.618 0.621 0.622 0.627 0.633 0.635
 0.639 0.642 0.659 0.664 0.667 0.67  0.717 0.732 0.733 0.763 0.763 0.821
 0.859 0.866 0.868 0.877 0.927]
e_fermi =  0.8388991934883238
[2.000e+00 2.000e+00 2.000e+00 2.000e+00 2.000e+00 2.000e+00 2.000e+00
 2.000e+00 2.000e+00 2.000e+00 2.000e+00 2.000e+00 2.000e+00 2.000e+00
 2.000e+00 2.000e+00 2.000e+00 2.000e+00 2.000e+00 2.000e+00 2.000e+00
 2.000e+00 2.000e+00 1.948e+00 3.468e-02 9.522e-03 6.533e-03 1.077e-03]
entropy correction =  -0.002644756289084107
cycle= 4 E= -88.3830596316128  delta_E= -0.0188  |g|= 0.23  |ddm|= 1.32
HOMO: 0.8464766055567572 LUMO: 0.871939810855018
mo_energy:
[0.203 0.209 0.218 0.221 0.351 0.368 0.627 0.629 0.631 0.635 0.643 0.644
 0.647 0.649 0.673 0.681 0.688 0.697 0.76  0.778 0.778 0.806 0.809 0.846
 0.872 0.878 0.881 0.884 0.934]
e_fermi =  0.8580014151248097
[2.    2.    2.    2.    2.    2.    2.    2.    2.    2.    2.    2.
 2.    2.    2.    2.    2.    2.    2.    2.    2.    2.    2.    1.819
 0.116 0.034 0.02  0.011]
entropy correction =  -0.007043186949492685
cycle= 5 E= -88.4014415605659  delta_E= -0.0184  |g|= 0.0804  |ddm|= 0.228
HOMO: 0.864815574944174 LUMO: 0.880336231391282
mo_energy:
[0.215 0.22  0.23  0.232 0.371 0.387 0.639 0.64  0.642 0.646 0.655 0.655
 0.659 0.66  0.688 0.696 0.704 0.716 0.778 0.797 0.8   0.828 0.832 0.865
 0.88  0.885 0.89  0.891 0.939]
e_fermi =  0.8709533595254131
[2.    2.    2.    2.    2.    2.    2.    2.    2.    2.    2.    2.
 2.    2.    2.    2.    2.    2.    2.    2.    2.    2.    1.999 1.547
 0.266 0.107 0.044 0.037]
entropy correction =  -0.013401969197342474
cycle= 6 E= -88.4052492143054  delta_E= -0.00381  |g|= 0.0175  |ddm|= 0.238
HOMO: 0.8615168330096586 LUMO: 0.8782359120960362
mo_energy:
[0.211 0.216 0.226 0.228 0.371 0.387 0.635 0.636 0.639 0.643 0.651 0.652
 0.656 0.656 0.684 0.692 0.7   0.713 0.778 0.797 0.799 0.827 0.831 0.862
 0.878 0.884 0.888 0.889 0.938]
e_fermi =  0.8684753936121179
[2.    2.    2.    2.    2.    2.    2.    2.    2.    2.    2.    2.
 2.    2.    2.    2.    2.    2.    2.    2.    2.    2.    1.999 1.602
 0.249 0.082 0.039 0.03 ]
entropy correction =  -0.012277455774216331
cycle= 7 E= -88.4054030860294  delta_E= -0.000154  |g|= 0.00458  |ddm|= 0.0529
HOMO: 0.8621345870193748 LUMO: 0.8782710689402308
mo_energy:
[0.211 0.216 0.226 0.228 0.371 0.387 0.635 0.637 0.639 0.643 0.651 0.652
 0.656 0.656 0.684 0.692 0.701 0.714 0.779 0.797 0.799 0.827 0.832 0.862
 0.878 0.884 0.888 0.89  0.938]
e_fermi =  0.868817483339456
[2.    2.    2.    2.    2.    2.    2.    2.    2.    2.    2.    2.
 2.    2.    2.    2.    2.    2.    2.    2.    2.    1.999 1.999 1.584
 0.262 0.084 0.041 0.031]
entropy correction =  -0.012614635769500266
cycle= 8 E= -88.4054176855983  delta_E= -1.46e-05  |g|= 0.00155  |ddm|= 0.016
HOMO: 0.8621425141658886 LUMO: 0.8782468155125986
mo_energy:
[0.211 0.216 0.226 0.228 0.371 0.387 0.635 0.637 0.639 0.643 0.651 0.652
 0.656 0.656 0.684 0.692 0.701 0.714 0.779 0.798 0.799 0.828 0.832 0.862
 0.878 0.884 0.888 0.89  0.938]
e_fermi =  0.8688148221343539
[2.    2.    2.    2.    2.    2.    2.    2.    2.    2.    2.    2.
 2.    2.    2.    2.    2.    2.    2.    2.    2.    1.999 1.999 1.583
 0.263 0.084 0.041 0.031]
entropy correction =  -0.012624594793799885
cycle= 9 E= -88.4054187751544  delta_E= -1.09e-06  |g|= 0.000441  |ddm|= 0.00292
HOMO: 0.8620784366188495 LUMO: 0.8781874676156638
mo_energy:
[0.211 0.216 0.226 0.228 0.371 0.387 0.635 0.637 0.639 0.643 0.651 0.652
 0.656 0.656 0.684 0.692 0.701 0.714 0.779 0.798 0.799 0.827 0.832 0.862
 0.878 0.884 0.888 0.89  0.938]
e_fermi =  0.8687630354282704
[2.    2.    2.    2.    2.    2.    2.    2.    2.    2.    2.    2.
 2.    2.    2.    2.    2.    2.    2.    2.    2.    1.999 1.999 1.584
 0.264 0.083 0.04  0.031]
entropy correction =  -0.012603530357108733
cycle= 10 E= -88.4054188764924  delta_E= -1.01e-07  |g|= 0.000182  |ddm|= 0.0014
HOMO: 0.8620760356777438 LUMO: 0.8781771154263677
mo_energy:
[0.211 0.216 0.226 0.228 0.371 0.387 0.635 0.637 0.639 0.643 0.651 0.652
 0.656 0.656 0.684 0.692 0.701 0.714 0.779 0.798 0.799 0.828 0.832 0.862
 0.878 0.884 0.888 0.89  0.938]
e_fermi =  0.8687590148396231
[2.    2.    2.    2.    2.    2.    2.    2.    2.    2.    2.    2.
 2.    2.    2.    2.    2.    2.    2.    2.    2.    1.999 1.999 1.584
 0.264 0.083 0.04  0.031]
entropy correction =  -0.012604309109328528
cycle= 11 E= -88.4054188916612  delta_E= -1.52e-08  |g|= 5.4e-05  |ddm|= 0.000439
HOMO: 0.8620853203335002 LUMO: 0.8781800742040673
mo_energy:
[0.211 0.216 0.226 0.228 0.371 0.387 0.635 0.637 0.639 0.643 0.651 0.652
 0.656 0.656 0.684 0.692 0.701 0.714 0.779 0.798 0.799 0.828 0.832 0.862
 0.878 0.884 0.888 0.89  0.938]
e_fermi =  0.8687651020623054
[2.    2.    2.    2.    2.    2.    2.    2.    2.    2.    2.    2.
 2.    2.    2.    2.    2.    2.    2.    2.    2.    1.999 1.999 1.584
 0.264 0.083 0.04  0.031]
entropy correction =  -0.012608373950852765
cycle= 12 E= -88.4054188935761  delta_E= -1.91e-09  |g|= 1.12e-05  |ddm|= 0.000185
HOMO: 0.8620837996803211 LUMO: 0.878179064882295
mo_energy:
[0.211 0.216 0.226 0.228 0.371 0.387 0.635 0.637 0.639 0.643 0.651 0.652
 0.656 0.656 0.684 0.692 0.701 0.714 0.779 0.798 0.799 0.828 0.832 0.862
 0.878 0.884 0.888 0.89  0.938]
e_fermi =  0.8687639626064995
[2.    2.    2.    2.    2.    2.    2.    2.    2.    2.    2.    2.
 2.    2.    2.    2.    2.    2.    2.    2.    2.    1.999 1.999 1.584
 0.264 0.083 0.04  0.031]
entropy correction =  -0.012607810783219214
cycle= 13 E= -88.4054188936507  delta_E= -7.46e-11  |g|= 2.98e-06  |ddm|= 2.74e-05
HOMO: 0.8620831986349914 LUMO: 0.8781787277264418
mo_energy:
[0.211 0.216 0.226 0.228 0.371 0.387 0.635 0.637 0.639 0.643 0.651 0.652
 0.656 0.656 0.684 0.692 0.701 0.714 0.779 0.798 0.799 0.828 0.832 0.862
 0.878 0.884 0.888 0.89  0.938]
e_fermi =  0.8687635381458391
[2.    2.    2.    2.    2.    2.    2.    2.    2.    2.    2.    2.
 2.    2.    2.    2.    2.    2.    2.    2.    2.    1.999 1.999 1.584
 0.264 0.083 0.04  0.031]
entropy correction =  -0.012607560522630306
Extra cycle  E= -88.4054188936447  delta_E= 6e-12  |g|= 4.48e-06  |ddm|= 1.37e-05
converged SCF energy = -88.4054188936447
|umat| =  1.1494430971441074
rks_ao.ne_frozen =  0
Set gradient conv threshold to 3.16228e-05
tot grids = 120648
init E= -387.316346443781
HOMO:  0.20397911213611183 LUMO:  0.20668990380873983
Fermi energy:       0.2051857960
[2.     2.     2.     2.     2.     2.     2.     2.     2.     2.
 2.     2.     2.     2.     2.     2.     1.1201 0.8507 0.0212 0.0042
 0.0038]
entropy correction =  -0.014555145477781091
cycle= 1 E= -326.872637731174  delta_E= 60.4  |g|= 12.7  |ddm|= 7.58
HOMO:  -8.425929613251279 LUMO:  -8.415247644013197
Fermi energy:      -8.4157490541
[2.     2.     2.     2.     2.     2.     2.     2.     1.9729 1.9652
 1.9432 1.9232 1.9044 1.8684 1.8577 1.8461 1.7691 0.9499]
entropy correction =  -0.024637237760427616
cycle= 2 E= -384.737492697689  delta_E= -57.9  |g|= 4.22  |ddm|= 7.64
HOMO:  -2.1029244623055163 LUMO:  -2.100725477114917
Fermi energy:      -2.0986719462
[2.     2.     2.     2.     2.     2.     2.     2.     2.     2.
 2.     2.     2.     1.958  1.9547 1.4834 1.4013 1.2025]
entropy correction =  -0.02064151632794271
cycle= 3 E= -388.457729720339  delta_E= -3.72  |g|= 1.76  |ddm|= 3.27
HOMO:  -1.0474716819985797 LUMO:  -1.0459876727863666
Fermi energy:      -1.0483991149
[2.     2.     2.     2.     2.     2.     2.     2.     2.     2.
 2.     2.     2.     2.     2.     1.9803 0.9075 0.7634 0.3143 0.0244
 0.01  ]
entropy correction =  -0.01941597469924767
cycle= 4 E= -367.972513867975  delta_E= 20.5  |g|= 10.1  |ddm|= 4.54
HOMO:  -1.3441334762955461 LUMO:  -1.3314119358342318
Fermi energy:      -1.3363172977
[2.     2.     2.     2.     2.     2.     2.     2.     2.     2.
 2.     2.     2.     1.9631 1.8896 1.6682 1.6536 0.5454 0.2802]
entropy correction =  -0.02206870323941691
cycle= 5 E= -383.687687169172  delta_E= -15.7  |g|= 4.59  |ddm|= 2.58
HOMO:  -1.4938367670071167 LUMO:  -1.4868597494945386
Fermi energy:      -1.4863138472
[2.     2.     2.     2.     2.     2.     2.     2.     2.     2.
 2.     2.     2.     1.823  1.751  1.7349 1.6365 1.0545]
entropy correction =  -0.022316954025811696
cycle= 6 E= -388.126953572084  delta_E= -4.44  |g|= 2.39  |ddm|= 2.01
HOMO:  -1.5131438531819952 LUMO:  -1.5042240409154135
Fermi energy:      -1.5070931229
[2.     2.     2.     2.     2.     2.     2.     2.     2.     2.
 2.     2.     2.     1.951  1.9009 1.8868 1.5406 0.7207]
entropy correction =  -0.017223690987471178
cycle= 7 E= -388.457114267168  delta_E= -0.33  |g|=  1.9  |ddm|= 0.545
HOMO:  -1.59696972871094 LUMO:  -1.592227245134498
Fermi energy:      -1.5918847456
[2.     2.     2.     2.     2.     2.     2.     2.     2.     2.
 2.     2.     2.     1.9782 1.8481 1.6707 1.4688 1.0342]
entropy correction =  -0.02047533063540802
cycle= 8 E= -388.548354787949  delta_E= -0.0912  |g|= 1.69  |ddm|= 1.39
HOMO:  -1.5768970303695697 LUMO:  -1.575448249154658
Fermi energy:      -1.5754486436
[2.     2.     2.     2.     2.     2.     2.     2.     2.     2.
 2.     2.     2.     1.9987 1.9986 1.8588 1.1438 1.    ]
entropy correction =  -0.016420374045820144
cycle= 9 E= -388.51095332054  delta_E= 0.0374  |g|= 1.75  |ddm|= 1.61
HOMO:  -1.56698359318793 LUMO:  -1.5665680448890031
Fermi energy:      -1.5667547676
[2.     2.     2.     2.     2.     2.     2.     2.     2.     2.
 2.     2.     2.     1.9999 1.9986 1.9972 1.0229 0.9813]
entropy correction =  -0.014024428081368931
cycle= 10 E= -388.544788234074  delta_E= -0.0338  |g|= 1.64  |ddm|=  1.7
HOMO:  -1.5585279790431463 LUMO:  -1.551622478726066
Fermi energy:      -1.5538556059
[2.     2.     2.     2.     2.     2.     2.     2.     2.     2.
 2.     2.     2.     1.9782 1.9763 1.8292 1.436  0.7803]
entropy correction =  -0.01679881946099282
cycle= 11 E= -388.545503155191  delta_E= -0.000715  |g|= 1.74  |ddm|= 1.51
HOMO:  -1.4771696807763548 LUMO:  -1.466161386809809
Fermi energy:      -1.4696994568
[2.     2.     2.     2.     2.     2.     2.     2.     2.     2.
 2.     2.     2.     2.     2.     1.7064 1.6334 0.6603]
entropy correction =  -0.01527841368758852
cycle= 12 E= -388.471005273381  delta_E= 0.0745  |g|= 1.87  |ddm|= 1.32
HOMO:  -1.5604769645809655 LUMO:  -1.5589939507702049
Fermi energy:      -1.5592096487
[2.     2.     2.     2.     2.     2.     2.     2.     2.     2.
 2.     2.     2.     1.9997 1.9997 1.8961 1.1261 0.9784]
entropy correction =  -0.01585269216925105
cycle= 13 E= -388.578233020953  delta_E= -0.107  |g|= 1.67  |ddm|= 0.591
HOMO:  -1.5931898510050815 LUMO:  -1.591582213922173
Fermi energy:      -1.5917655379
[2.     2.     2.     2.     2.     2.     2.     2.     2.     2.
 2.     2.     2.     1.9995 1.9995 1.8779 1.1415 0.9817]
entropy correction =  -0.01610713953678494
cycle= 14 E= -388.616316655144  delta_E= -0.0381  |g|= 1.59  |ddm|= 0.0927
HOMO:  -1.6296439361961108 LUMO:  -1.6208454865974888
Fermi energy:      -1.6227235373
[2.     2.     2.     2.     2.     2.     2.     2.     1.9999 1.9999
 1.9962 1.9938 1.9836 1.9824 1.8438 1.7867 1.5993 0.8144]
entropy correction =  -0.01923974813464263
cycle= 15 E= -389.214038294016  delta_E= -0.598  |g|= 0.865  |ddm|= 1.44
HOMO:  -1.6364399364347186 LUMO:  -1.6320724505680548
Fermi energy:      -1.6298872165
[2.     2.     2.     2.     2.     2.     2.     2.     1.9919 1.9896
 1.9537 1.9447 1.9321 1.8971 1.8806 1.62   1.5752 1.2151]
entropy correction =  -0.025457405420057925
cycle= 16 E= -389.485555735405  delta_E= -0.272  |g|= 0.296  |ddm|= 0.759
HOMO:  -1.6021057207069804 LUMO:  -1.6007439807341568
Fermi energy:      -1.5990407551
[2.     2.     2.     2.     2.     2.     2.     2.     2.     1.9999
 1.9995 1.9993 1.998  1.9769 1.9515 1.609  1.2972 1.1687]
entropy correction =  -0.02012602444782529
cycle= 17 E= -388.664938359825  delta_E= 0.821  |g|= 1.52  |ddm|= 1.16
HOMO:  -1.5705243587311193 LUMO:  -1.568189416116046
Fermi energy:      -1.5682041500
[2.     2.     2.     2.     2.     2.     2.     2.     2.     2.
 2.     2.     2.     1.9944 1.9829 1.7962 1.2279 0.9985]
entropy correction =  -0.017578270383697716
cycle= 18 E= -388.625262069874  delta_E= 0.0397  |g|= 1.57  |ddm|= 0.512
HOMO:  -1.5671199305251895 LUMO:  -1.5632245774838458
Fermi energy:      -1.5633448740
[2.     2.     2.     2.     2.     2.     2.     2.     2.     2.
 2.     2.     2.     1.9931 1.9878 1.6705 1.3605 0.988 ]
entropy correction =  -0.018272378614620773
cycle= 19 E= -388.642388404727  delta_E= -0.0171  |g|= 1.58  |ddm|= 0.655
HOMO:  -1.5516501190109782 LUMO:  -1.5482973436237584
Fermi energy:      -1.5481746420
[2.     2.     2.     2.     2.     2.     2.     2.     2.     2.
 2.     2.     2.     1.9917 1.979  1.6829 1.3342 1.0123]
entropy correction =  -0.01851840854818655
cycle= 20 E= -388.612896109946  delta_E= 0.0295  |g|= 1.62  |ddm|= 0.384
HOMO:  -1.5571455850615785 LUMO:  -1.5530367626346804
Fermi energy:      -1.5535280963
[2.     2.     2.     2.     2.     2.     2.     2.     2.     2.
 2.     2.     2.     1.9952 1.9851 1.722  1.3468 0.9509]
entropy correction =  -0.01787560348131445
cycle= 21 E= -388.616297540639  delta_E= -0.0034  |g|=  1.6  |ddm|= 0.177
HOMO:  -1.578504177524772 LUMO:  -1.5749611773903185
Fermi energy:      -1.5757184263
[2.     2.     2.     2.     2.     2.     2.     2.     2.     2.
 2.     2.     1.9999 1.9965 1.9859 1.8218 1.2716 0.9244]
entropy correction =  -0.017024151874281208
cycle= 22 E= -388.635967126772  delta_E= -0.0197  |g|= 1.54  |ddm|= 0.368
HOMO:  -1.5971748285185172 LUMO:  -1.5942434111331016
Fermi energy:      -1.5945730080
[2.     2.     2.     2.     2.     2.     2.     2.     1.9991 1.9974
 1.9958 1.9891 1.9873 1.9804 1.9565 1.8728 1.2545 0.9671]
entropy correction =  -0.018505072021015492
cycle= 23 E= -388.782550573108  delta_E= -0.147  |g|= 1.37  |ddm|= 0.183
HOMO:  -1.6040254642572735 LUMO:  -1.6003774039206222
Fermi energy:      -1.5961235961
[2.     2.     2.     2.     2.     2.     2.     2.     1.999  1.9977
 1.9358 1.8809 1.829  1.7863 1.7721 1.7394 1.6585 1.4015]
entropy correction =  -0.028220627976908292
cycle= 24 E= -389.495983238059  delta_E= -0.713  |g|= 0.109  |ddm|= 0.789
HOMO:  -1.5975112586512834 LUMO:  -1.5898080219134632
Fermi energy:      -1.5928281912
[2.     2.     2.     2.     2.     2.     2.     2.     1.9999 1.9998
 1.9998 1.9996 1.999  1.9953 1.9752 1.8876 1.4368 0.7068]
entropy correction =  -0.015520362624904254
cycle= 25 E= -388.899808842396  delta_E= 0.596  |g|= 1.25  |ddm|= 1.38
HOMO:  -1.609309933011866 LUMO:  -1.6047088029782217
Fermi energy:      -1.6043405178
[2.     2.     2.     2.     2.     2.     2.     2.     2.     1.9999
 1.9973 1.9958 1.9941 1.9871 1.8062 1.7231 1.4597 1.0368]
entropy correction =  -0.02081410813449688
cycle= 26 E= -389.473303630543  delta_E= -0.573  |g|= 0.306  |ddm|= 0.976
HOMO:  -1.6182753400431076 LUMO:  -1.6100950923365778
Fermi energy:      -1.6095389568
[2.     2.     2.     2.     2.     2.     2.     2.     1.9592 1.9558
 1.9479 1.9369 1.9159 1.9125 1.8552 1.7578 1.7032 1.0556]
entropy correction =  -0.025609658652405824
cycle= 27 E= -389.356606135952  delta_E= 0.117  |g|= 0.65  |ddm|= 0.749
HOMO:  -1.6187931747634516 LUMO:  -1.6123342666455647
Fermi energy:      -1.6095073708
[2.     2.     2.     2.     2.     2.     2.     2.     1.9833 1.9796
 1.9563 1.9382 1.8302 1.7827 1.7789 1.7454 1.7299 1.2754]
entropy correction =  -0.027618360143939955
cycle= 28 E= -389.227291818898  delta_E= 0.129  |g|= 0.893  |ddm|= 0.792
HOMO:  -1.6191631874901715 LUMO:  -1.612261705562623
Fermi energy:      -1.6095718432
[2.     2.     2.     2.     2.     2.     2.     2.     1.9827 1.9785
 1.9557 1.938  1.8261 1.7895 1.7679 1.755  1.7439 1.2627]
entropy correction =  -0.0275722510219936
cycle= 29 E= -389.242487937242  delta_E= -0.0152  |g|= 0.869  |ddm|= 0.0238
HOMO:  -1.619648329676327 LUMO:  -1.6132290474454476
Fermi energy:      -1.6101801488
[2.     2.     2.     2.     2.     2.     2.     2.     1.9768 1.9701
 1.9464 1.9241 1.84   1.7967 1.7625 1.7492 1.7383 1.2958]
entropy correction =  -0.028117882851952474
cycle= 30 E= -389.307148687883  delta_E= -0.0647  |g|= 0.76  |ddm|= 0.0537
HOMO:  -1.6174738081818676 LUMO:  -1.6088666086362082
Fermi energy:      -1.6084457002
[2.     2.     2.     2.     2.     2.     2.     2.     1.9623 1.9546
 1.9496 1.9351 1.9079 1.8822 1.8754 1.7731 1.7177 1.0421]
entropy correction =  -0.025594705260202116
cycle= 31 E= -389.277484431452  delta_E= 0.0297  |g|= 0.805  |ddm|= 0.342
HOMO:  -1.6178881072370142 LUMO:  -1.6113953930285347
Fermi energy:      -1.6092565124
[2.     2.     2.     2.     2.     2.     2.     2.     1.943  1.936
 1.9095 1.8928 1.8774 1.8693 1.8596 1.8038 1.6979 1.2107]
entropy correction =  -0.02806663772317898
cycle= 32 E= -389.433023135112  delta_E= -0.156  |g|= 0.482  |ddm|= 0.215
HOMO:  -1.6183671359820608 LUMO:  -1.6137133998455417
Fermi energy:      -1.6097455881
[2.     2.     2.     2.     2.     2.     2.     2.     1.9263 1.8876
 1.878  1.8725 1.87   1.8677 1.8169 1.8064 1.6974 1.3772]
entropy correction =  -0.029943999670485263
cycle= 33 E= -389.516625028493  delta_E= -0.0836  |g|= 0.0729  |ddm|= 0.23
HOMO:  -1.616536026390383 LUMO:  -1.6123230860327178
Fermi energy:      -1.6091799631
[2.     2.     2.     2.     2.     2.     2.     2.     1.9223 1.9123
 1.9042 1.8824 1.8712 1.8617 1.8592 1.8559 1.6265 1.3044]
entropy correction =  -0.028917695665524008
cycle= 34 E= -389.518047856546  delta_E= -0.00142  |g|= 0.0584  |ddm|= 0.203
HOMO:  -1.6179226334414538 LUMO:  -1.6131270383636154
Fermi energy:      -1.6102666647
[2.     2.     2.     2.     2.     2.     2.     2.     1.9115 1.9026
 1.8975 1.8898 1.8868 1.8817 1.8695 1.8377 1.6444 1.2785]
entropy correction =  -0.028780619749149243
cycle= 35 E= -389.509446955916  delta_E= 0.0086  |g|= 0.161  |ddm|= 0.191
HOMO:  -1.6184165143195586 LUMO:  -1.6142356799855964
Fermi energy:      -1.6107163497
[2.     2.     2.     2.     2.     2.     2.     2.     1.8956 1.8896
 1.8844 1.8798 1.8748 1.8693 1.8623 1.8591 1.6469 1.3381]
entropy correction =  -0.029484100988129813
cycle= 36 E= -389.519542742652  delta_E= -0.0101  |g|= 0.00741  |ddm|= 0.164
HOMO:  -1.6179168810191324 LUMO:  -1.6137454739365908
Fermi energy:      -1.6103164767
[2.     2.     2.     2.     2.     2.     2.     2.     1.893  1.8885
 1.8832 1.8806 1.8769 1.8706 1.8704 1.8655 1.6411 1.3301]
entropy correction =  -0.029378650526317843
cycle= 37 E= -389.519657426035  delta_E= -0.000115  |g|= 0.00943  |ddm|= 0.0606
HOMO:  -1.6175800020106987 LUMO:  -1.6134141463356355
Fermi energy:      -1.6100202213
[2.     2.     2.     2.     2.     2.     2.     2.     1.8923 1.8861
 1.8829 1.8822 1.8791 1.8739 1.8716 1.8663 1.6387 1.3269]
entropy correction =  -0.029334852794755173
cycle= 38 E= -389.519609160227  delta_E= 4.83e-05  |g|= 0.0149  |ddm|= 0.0332
HOMO:  -1.617741929273753 LUMO:  -1.6135783556527572
Fermi energy:      -1.6101370064
[2.     2.     2.     2.     2.     2.     2.     2.     1.8892 1.8866
 1.8831 1.8792 1.8776 1.8736 1.8705 1.8677 1.6414 1.3312]
entropy correction =  -0.029396664595976747
cycle= 39 E= -389.519713058677  delta_E= -0.000104  |g|= 0.00192  |ddm|= 0.0241
HOMO:  -1.6178583059231064 LUMO:  -1.6136925706052745
Fermi energy:      -1.6102197427
[2.     2.     2.     2.     2.     2.     2.     2.     1.8897 1.8861
 1.8819 1.8781 1.8769 1.8724 1.8703 1.8674 1.6433 1.334 ]
entropy correction =  -0.0294368492678789
cycle= 40 E= -389.51971542032  delta_E= -2.36e-06  |g|= 0.00157  |ddm|= 0.00629
HOMO:  -1.6178662505118744 LUMO:  -1.6137008818166094
Fermi energy:      -1.6102334964
[2.     2.     2.     2.     2.     2.     2.     2.     1.8896 1.886
 1.8822 1.8786 1.8769 1.8725 1.8705 1.8673 1.643  1.3335]
entropy correction =  -0.029429969515785637
cycle= 41 E= -389.519716133425  delta_E= -7.13e-07  |g|= 0.000836  |ddm|= 0.00141
HOMO:  -1.6178772511908563 LUMO:  -1.613711530334039
Fermi energy:      -1.6102399875
[2.     2.     2.     2.     2.     2.     2.     2.     1.8897 1.886
 1.8822 1.8785 1.8766 1.8722 1.8705 1.8674 1.6433 1.3338]
entropy correction =  -0.029435244885035364
cycle= 42 E= -389.519716354041  delta_E= -2.21e-07  |g|= 0.000281  |ddm|= 0.00102
HOMO:  -1.6178716035732554 LUMO:  -1.6137062584147974
Fermi energy:      -1.6102363942
[2.     2.     2.     2.     2.     2.     2.     2.     1.8896 1.886
 1.8821 1.8785 1.8767 1.8723 1.8706 1.8674 1.6431 1.3337]
entropy correction =  -0.02943310975413646
cycle= 43 E= -389.519716400858  delta_E= -4.68e-08  |g|= 3.63e-05  |ddm|= 0.000664
HOMO:  -1.6178699269589787 LUMO:  -1.613704493268655
Fermi energy:      -1.6102369959
[2.     2.     2.     2.     2.     2.     2.     2.     1.8896 1.886
 1.8822 1.8785 1.8768 1.8723 1.8706 1.8674 1.643  1.3335]
entropy correction =  -0.029430163909029354
cycle= 44 E= -389.519716378259  delta_E= 2.26e-08  |g|= 0.000253  |ddm|= 0.000465
HOMO:  -1.6178680006625066 LUMO:  -1.6137025117662238
Fermi energy:      -1.6102352774
[2.     2.     2.     2.     2.     2.     2.     2.     1.8896 1.886
 1.8822 1.8785 1.8768 1.8723 1.8707 1.8674 1.643  1.3335]
entropy correction =  -0.02942989245020657
cycle= 45 E= -389.519716364414  delta_E= 1.38e-08  |g|= 0.000311  |ddm|= 0.000562
HOMO:  -1.6178695481959584 LUMO:  -1.6137040334631312
Fermi energy:      -1.6102357483
[2.     2.     2.     2.     2.     2.     2.     2.     1.8896 1.886
 1.8822 1.8785 1.8768 1.8723 1.8706 1.8674 1.6431 1.3336]
entropy correction =  -0.029431167307694555
cycle= 46 E= -389.519716404639  delta_E= -4.02e-08  |g|= 1.78e-05  |ddm|= 0.00037
HOMO:  -1.6178691877371931 LUMO:  -1.6137037423380831
Fermi energy:      -1.6102353616
[2.     2.     2.     2.     2.     2.     2.     2.     1.8896 1.886
 1.8822 1.8785 1.8768 1.8723 1.8706 1.8674 1.6431 1.3336]
entropy correction =  -0.02943127901938864
cycle= 47 E= -389.519716405275  delta_E= -6.37e-10  |g|= 2.84e-05  |ddm|= 0.000143
HOMO:  -1.617870598852057 LUMO:  -1.6137048274670596
Fermi energy:      -1.6102364739
[2.     2.     2.     2.     2.     2.     2.     2.     1.8896 1.886
 1.8821 1.8783 1.877  1.8726 1.8703 1.8673 1.6431 1.3336]
entropy correction =  -0.029431360002082744
Extra cycle  E= -389.519711455844  delta_E= 4.95e-06  |g|= 0.00368  |ddm|= 0.00164
entropy correction =  -0.029431360002082744
rks_ao.ne_frozen =  0
Set gradient conv threshold to 3.16228e-05
tot grids = 139880
init E= -79.0707359659897
HOMO:  0.16294519186782205 LUMO:  0.17603613788448422
Fermi energy:       0.1694882254
[2.0000e+00 2.0000e+00 2.0000e+00 2.0000e+00 2.0000e+00 2.0000e+00
 2.0000e+00 2.0000e+00 2.0000e+00 2.0000e+00 2.0000e+00 2.0000e+00
 2.0000e+00 2.0000e+00 2.0000e+00 2.0000e+00 2.0000e+00 2.0000e+00
 2.0000e+00 2.0000e+00 2.0000e+00 2.0000e+00 2.0000e+00 1.5746e+00
 4.2511e-01 3.2913e-04]
entropy correction =  -0.010364787596069418
cycle= 1 E= -86.3351904306062  delta_E= -7.26  |g|= 2.54  |ddm|= 9.75
HOMO:  0.8129874816516021 LUMO:  0.8373581796870709
Fermi energy:       0.8251624279
[2.0000e+00 2.0000e+00 2.0000e+00 2.0000e+00 2.0000e+00 2.0000e+00
 2.0000e+00 2.0000e+00 2.0000e+00 2.0000e+00 2.0000e+00 2.0000e+00
 2.0000e+00 2.0000e+00 2.0000e+00 2.0000e+00 2.0000e+00 2.0000e+00
 2.0000e+00 2.0000e+00 2.0000e+00 2.0000e+00 2.0000e+00 1.8389e+00
 1.6047e-01 6.3029e-04]
entropy correction =  -0.005624417918161186
cycle= 2 E= -87.1815322107074  delta_E= -0.846  |g|= 1.95  |ddm|= 5.65
HOMO:  0.8889598794307048 LUMO:  0.8937653066145401
Fermi energy:       0.8893944875
[2.     2.     2.     2.     2.     2.     2.     2.     2.     2.
 2.     2.     2.     2.     2.     2.     2.     2.     2.     2.
 1.9999 1.9898 1.9476 1.0434 0.5888 0.2798 0.1366 0.0141]
entropy correction =  -0.021482391376920967
cycle= 3 E= -88.3642792423816  delta_E= -1.18  |g|= 0.249  |ddm|= 2.45
HOMO:  0.8207640208292735 LUMO:  0.8590853246940514
Fermi energy:       0.8388991935
[2.0000e+00 2.0000e+00 2.0000e+00 2.0000e+00 2.0000e+00 2.0000e+00
 2.0000e+00 2.0000e+00 2.0000e+00 2.0000e+00 2.0000e+00 2.0000e+00
 2.0000e+00 2.0000e+00 2.0000e+00 2.0000e+00 2.0000e+00 2.0000e+00
 2.0000e+00 2.0000e+00 2.0000e+00 2.0000e+00 2.0000e+00 1.9482e+00
 3.4681e-02 9.5222e-03 6.5330e-03 1.0770e-03]
entropy correction =  -0.0026447562890838487
cycle= 4 E= -88.3830596316131  delta_E= -0.0188  |g|= 0.23  |ddm|= 1.32
HOMO:  0.8464766055567484 LUMO:  0.8719398108550103
Fermi energy:       0.8580014151
[2.     2.     2.     2.     2.     2.     2.     2.     2.     2.
 2.     2.     2.     2.     2.     2.     2.     2.     2.     2.
 2.     1.9999 1.9999 1.8186 0.116  0.0341 0.0201 0.0115]
entropy correction =  -0.007043186949492074
cycle= 5 E= -88.4014415605663  delta_E= -0.0184  |g|= 0.0804  |ddm|= 0.228
HOMO:  0.8648155749441725 LUMO:  0.8803362313912813
Fermi energy:       0.8709533595
[2.     2.     2.     2.     2.     2.     2.     2.     2.     2.
 2.     2.     2.     2.     2.     2.     2.     2.     2.     2.
 2.     1.9996 1.9992 1.5468 0.2656 0.1074 0.0441 0.0374]
entropy correction =  -0.013401969197342654
cycle= 6 E= -88.4052492143055  delta_E= -0.00381  |g|= 0.0175  |ddm|= 0.238
HOMO:  0.8615168330096573 LUMO:  0.878235912096037
Fermi energy:       0.8684753936
[2.     2.     2.     2.     2.     2.     2.     2.     2.     2.
 2.     2.     2.     2.     2.     2.     2.     2.     2.     2.
 2.     1.9995 1.9988 1.6017 0.2486 0.0816 0.0393 0.0304]
entropy correction =  -0.01227745577421546
cycle= 7 E= -88.4054030860288  delta_E= -0.000154  |g|= 0.00458  |ddm|= 0.0529
HOMO:  0.8621345870193786 LUMO:  0.8782710689402324
Fermi energy:       0.8688174833
[2.     2.     2.     2.     2.     2.     2.     2.     2.     2.
 2.     2.     2.     2.     2.     2.     2.     2.     2.     2.
 2.     1.9995 1.9987 1.5839 0.2623 0.0838 0.0405 0.0313]
entropy correction =  -0.012614635769501496
cycle= 8 E= -88.4054176855981  delta_E= -1.46e-05  |g|= 0.00155  |ddm|= 0.016
HOMO:  0.8621425141658894 LUMO:  0.8782468155126004
Fermi energy:       0.8688148221
[2.     2.     2.     2.     2.     2.     2.     2.     2.     2.
 2.     2.     2.     2.     2.     2.     2.     2.     2.     2.
 2.     1.9995 1.9987 1.5832 0.2633 0.0836 0.0405 0.0312]
entropy correction =  -0.012624594793799028
cycle= 9 E= -88.4054187751541  delta_E= -1.09e-06  |g|= 0.000441  |ddm|= 0.00292
HOMO:  0.8620784366188478 LUMO:  0.8781874676156604
Fermi energy:       0.8687630354
[2.     2.     2.     2.     2.     2.     2.     2.     2.     2.
 2.     2.     2.     2.     2.     2.     2.     2.     2.     2.
 2.     1.9995 1.9987 1.584  0.2637 0.0828 0.0403 0.0311]
entropy correction =  -0.012603530357109425
cycle= 10 E= -88.4054188764926  delta_E= -1.01e-07  |g|= 0.000182  |ddm|= 0.0014
HOMO:  0.8620760356777425 LUMO:  0.8781771154263663
Fermi energy:       0.8687590148
[2.     2.     2.     2.     2.     2.     2.     2.     2.     2.
 2.     2.     2.     2.     2.     2.     2.     2.     2.     2.
 2.     1.9995 1.9987 1.5839 0.2639 0.0827 0.0403 0.0311]
entropy correction =  -0.012604309109328683
[...]
HOMO:  -1.5935811601339653 LUMO:  -1.5873518940216411
Fermi energy:      -1.5894041578
[2.     2.     2.     2.     2.     2.     2.     2.     1.9928 1.9925
 1.9917 1.9892 1.9823 1.9643 1.9571 1.9375 1.395  0.7976]
entropy correction =  -0.017774140609464747
cycle= 35 E= -388.848796971572  delta_E= 0.171  |g|= 1.36  |ddm|= 0.135
HOMO:  -1.6001085801055122 LUMO:  -1.59136680441167
Fermi energy:      -1.5915594272
[2.     2.     2.     2.     2.     2.     2.     2.     1.9998 1.9996
 1.9986 1.9587 1.8721 1.847  1.8348 1.8151 1.6936 0.9807]
entropy correction =  -0.02331614933252777
cycle= 36 E= -389.011383513283  delta_E= -0.163  |g|= 1.22  |ddm|= 1.39
HOMO:  -1.603278244569486 LUMO:  -1.5947955842758077
Fermi energy:      -1.5948398877
[2.     2.     2.     2.     2.     2.     2.     2.     1.9803 1.976
 1.9654 1.935  1.9215 1.9117 1.8892 1.7374 1.6878 0.9956]
entropy correction =  -0.024265040683588698
cycle= 37 E= -389.295342176571  delta_E= -0.284  |g|= 0.837  |ddm|= 0.23
HOMO:  -1.590292547153532 LUMO:  -1.5863687086554432
Fermi energy:      -1.5816020237
[2.     2.     2.     2.     2.     2.     2.     2.     1.9862 1.9399
 1.9011 1.8774 1.8568 1.8193 1.7486 1.7261 1.7009 1.4436]
entropy correction =  -0.029551869927103777
cycle= 38 E= -389.423566659678  delta_E= -0.128  |g|=  0.6  |ddm|= 0.957
HOMO:  -1.5939335783105646 LUMO:  -1.585945045391056
Fermi energy:      -1.5867566068
[2.     2.     2.     2.     2.     2.     2.     2.     1.9772 1.9612
 1.9553 1.9531 1.9416 1.9201 1.8858 1.8712 1.6155 0.919 ]
entropy correction =  -0.023131702847572086
cycle= 39 E= -389.193686645746  delta_E= 0.23  |g|= 0.982  |ddm|= 0.694
HOMO:  -1.5957804819676802 LUMO:  -1.5883005776053392
Fermi energy:      -1.5879704737
[2.     2.     2.     2.     2.     2.     2.     2.     1.9854 1.9528
 1.9295 1.9145 1.9127 1.8994 1.8648 1.8547 1.6533 1.033 ]
entropy correction =  -0.02524603081266782
cycle= 40 E= -389.233594081879  delta_E= -0.0399  |g|= 0.933  |ddm|= 0.34
HOMO:  -1.5973563972434077 LUMO:  -1.5899082936158524
Fermi energy:      -1.5878644048
[2.     2.     2.     2.     2.     2.     2.     2.     1.9615 1.9217
 1.9091 1.8999 1.8902 1.8458 1.8347 1.7961 1.7394 1.2016]
entropy correction =  -0.028023970242265925
cycle= 41 E= -389.436065565335  delta_E= -0.202  |g|= 0.576  |ddm|= 0.219
HOMO:  -1.6011310345199716 LUMO:  -1.5976100102915218
Fermi energy:      -1.5936171031
[2.     2.     2.     2.     2.     2.     2.     2.     1.9306 1.9212
 1.8876 1.8756 1.8624 1.855  1.8367 1.8156 1.636  1.3793]
entropy correction =  -0.02960880625896985
cycle= 42 E= -389.552571824673  delta_E= -0.117  |g|= 0.156  |ddm|= 0.539
HOMO:  -1.5983039415096902 LUMO:  -1.594791681714715
Fermi energy:      -1.5913780367
[2.     2.     2.     2.     2.     2.     2.     2.     1.9228 1.9013
 1.8988 1.8897 1.8765 1.8661 1.8607 1.8557 1.5996 1.3287]
entropy correction =  -0.029017685135530217
cycle= 43 E= -389.561500438157  delta_E= -0.00893  |g|= 0.0534  |ddm|= 0.24
HOMO:  -1.598196429492306 LUMO:  -1.5947861647549897
Fermi energy:      -1.5910411224
[2.     2.     2.     2.     2.     2.     2.     2.     1.9089 1.8969
 1.8926 1.882  1.8729 1.869  1.8623 1.8433 1.6141 1.3579]
entropy correction =  -0.029436030269930642
cycle= 44 E= -389.562932816366  delta_E= -0.00143  |g|= 0.00861  |ddm|= 0.118
HOMO:  -1.5986987562596073 LUMO:  -1.59525047871769
Fermi energy:      -1.5912722117
[2.     2.     2.     2.     2.     2.     2.     2.     1.9017 1.8902
 1.8838 1.8787 1.8713 1.8659 1.8621 1.8375 1.6307 1.3781]
entropy correction =  -0.02974843039972015
cycle= 45 E= -389.562871310169  delta_E= 6.15e-05  |g|= 0.0249  |ddm|= 0.0604
HOMO:  -1.5988586927046973 LUMO:  -1.595335779018199
Fermi energy:      -1.5914646638
[2.     2.     2.     2.     2.     2.     2.     2.     1.9032 1.8934
 1.8833 1.8787 1.873  1.871  1.8624 1.8373 1.6288 1.3689]
entropy correction =  -0.029644975296523136
cycle= 46 E= -389.562760512863  delta_E= 0.000111  |g|= 0.0264  |ddm|= 0.0378
HOMO:  -1.598864154473169 LUMO:  -1.5954208040075089
Fermi energy:      -1.5914598314
[2.     2.     2.     2.     2.     2.     2.     2.     1.9019 1.8905
 1.8835 1.879  1.8721 1.8672 1.8615 1.8383 1.6294 1.3766]
entropy correction =  -0.02972698799674874
cycle= 47 E= -389.563074689278  delta_E= -0.000314  |g|= 0.00853  |ddm|= 0.0478
HOMO:  -1.5986245361433378 LUMO:  -1.5951897232055543
Fermi energy:      -1.5912733556
[2.     2.     2.     2.     2.     2.     2.     2.     1.9025 1.8905
 1.8852 1.8794 1.8704 1.8693 1.8628 1.841  1.6262 1.3728]
entropy correction =  -0.029673415772286785
cycle= 48 E= -389.563102003467  delta_E= -2.73e-05  |g|= 0.0041  |ddm|= 0.0121
HOMO:  -1.5986029638934114 LUMO:  -1.5951681353198528
Fermi energy:      -1.5912562553
[2.     2.     2.     2.     2.     2.     2.     2.     1.9029 1.8904
 1.8846 1.8791 1.8711 1.8695 1.8626 1.8413 1.6259 1.3724]
entropy correction =  -0.02966839206114334
cycle= 49 E= -389.563107003427  delta_E= -5e-06  |g|= 0.00224  |ddm|= 0.00376
HOMO:  -1.5986135644972734 LUMO:  -1.5951782427389105
Fermi energy:      -1.5912669338
[2.     2.     2.     2.     2.     2.     2.     2.     1.9029 1.8905
 1.8845 1.8791 1.8712 1.8695 1.8627 1.8414 1.6259 1.3723]
entropy correction =  -0.029668075841800385
cycle= 50 E= -389.563108863011  delta_E= -1.86e-06  |g|= 0.000309  |ddm|= 0.00163
HOMO:  -1.5986187553584041 LUMO:  -1.5951832408141402
Fermi energy:      -1.5912693344
[2.     2.     2.     2.     2.     2.     2.     2.     1.9028 1.8904
 1.8845 1.8792 1.8712 1.8695 1.8626 1.8412 1.6261 1.3726]
entropy correction =  -0.029671104309704512
cycle= 51 E= -389.563108923617  delta_E= -6.06e-08  |g|= 4.62e-05  |ddm|= 0.000716
HOMO:  -1.598616433357962 LUMO:  -1.5951809850616585
Fermi energy:      -1.5912680347
[2.     2.     2.     2.     2.     2.     2.     2.     1.9028 1.8905
 1.8845 1.8791 1.8712 1.8695 1.8626 1.8412 1.626  1.3725]
entropy correction =  -0.029669980448571175
cycle= 52 E= -389.563108924229  delta_E= -6.12e-10  |g|= 1.53e-05  |ddm|= 0.000159
HOMO:  -1.5986188952193046 LUMO:  -1.5951831557343867
Fermi energy:      -1.5912685670
[2.     2.     2.     2.     2.     2.     2.     2.     1.9028 1.8904
 1.8845 1.8792 1.8712 1.8694 1.8626 1.8412 1.6261 1.3726]
entropy correction =  -0.029671995715412784
Extra cycle  E= -389.563108406433  delta_E= 5.18e-07  |g|= 0.00118  |ddm|= 0.00066
entropy correction =  -0.029671995715412784
rks_ao.ne_frozen =  0
Set gradient conv threshold to 3.16228e-05
tot grids = 139880
init E= -78.9684210683066
HOMO:  0.16473509179009305 LUMO:  0.18505830105075763
Fermi energy:       0.1748934574
[2.0000e+00 2.0000e+00 2.0000e+00 2.0000e+00 2.0000e+00 2.0000e+00
 2.0000e+00 2.0000e+00 2.0000e+00 2.0000e+00 2.0000e+00 2.0000e+00
 2.0000e+00 2.0000e+00 2.0000e+00 2.0000e+00 2.0000e+00 2.0000e+00
 2.0000e+00 2.0000e+00 2.0000e+00 2.0000e+00 2.0000e+00 1.7682e+00
 2.3157e-01 2.6578e-04]
entropy correction =  -0.007184743426774029
cycle= 1 E= -86.3130194214213  delta_E= -7.34  |g|= 2.55  |ddm|=   10
HOMO:  0.8031194676851425 LUMO:  0.8434169242953738
Fermi energy:       0.8232586920
[2.0000e+00 2.0000e+00 2.0000e+00 2.0000e+00 2.0000e+00 2.0000e+00
 2.0000e+00 2.0000e+00 2.0000e+00 2.0000e+00 2.0000e+00 2.0000e+00
 2.0000e+00 2.0000e+00 2.0000e+00 2.0000e+00 2.0000e+00 2.0000e+00
 2.0000e+00 2.0000e+00 2.0000e+00 2.0000e+00 2.0000e+00 1.9650e+00
 3.4871e-02 1.3118e-04]
entropy correction =  -0.0017673669127120978
cycle= 2 E= -87.1594802319914  delta_E= -0.846  |g|= 1.97  |ddm|= 6.11
HOMO:  0.9030352617202764 LUMO:  0.904556052685718
Fermi energy:       0.9020272712
[2.     2.     2.     2.     2.     2.     2.     2.     2.     2.
 2.     2.     2.     2.     2.     2.     2.     2.     2.     2.
 1.9999 1.9977 1.9621 0.8995 0.7524 0.2876 0.094  0.0068]
entropy correction =  -0.0207802394977688
cycle= 3 E= -88.342668608985  delta_E= -1.18  |g|= 0.305  |ddm|= 2.65
HOMO:  0.8318543153157798 LUMO:  0.868500467527617
Fermi energy:       0.8489340056
[2.0000e+00 2.0000e+00 2.0000e+00 2.0000e+00 2.0000e+00 2.0000e+00
 2.0000e+00 2.0000e+00 2.0000e+00 2.0000e+00 2.0000e+00 2.0000e+00
 2.0000e+00 2.0000e+00 2.0000e+00 2.0000e+00 2.0000e+00 2.0000e+00
 2.0000e+00 2.0000e+00 2.0000e+00 2.0000e+00 2.0000e+00 1.9364e+00
 3.9167e-02 1.2719e-02 1.0111e-02 1.6043e-03]
entropy correction =  -0.003141606229361198
cycle= 4 E= -88.3795533375687  delta_E= -0.0369  |g|= 0.244  |ddm|= 1.59
HOMO:  0.8576428132060119 LUMO:  0.8815935647135708
Fermi energy:       0.8682085006
[2.     2.     2.     2.     2.     2.     2.     2.     2.     2.
 2.     2.     2.     2.     2.     2.     2.     2.     2.     2.
 2.     2.     2.     1.7843 0.1287 0.0473 0.0236 0.0161]
entropy correction =  -0.008035737396328676
cycle= 5 E= -88.4005737632275  delta_E= -0.021  |g|= 0.0703  |ddm|= 0.255
HOMO:  0.8760577036129464 LUMO:  0.8900878204452233
Fermi energy:       0.8811558606
[2.     2.     2.     2.     2.     2.     2.     2.     2.     2.
 2.     2.     2.     2.     2.     2.     2.     2.     2.     2.
 2.     2.     2.     1.4698 0.287  0.1432 0.0588 0.0411]
entropy correction =  -0.014807213583602753
cycle= 6 E= -88.4030067582853  delta_E= -0.00243  |g|= 0.0296  |ddm|= 0.266
HOMO:  0.8700509447415533 LUMO:  0.8868435208833939
Fermi energy:       0.8768811915
[2.     2.     2.     2.     2.     2.     2.     2.     2.     2.
 2.     2.     2.     2.     2.     2.     2.     2.     2.     2.
 2.     2.     1.9999 1.5935 0.24   0.0915 0.0453 0.0298]
entropy correction =  -0.01243614311359193
cycle= 7 E= -88.4035471751997  delta_E= -0.00054  |g|= 0.00649  |ddm|= 0.109
HOMO:  0.8710564450659481 LUMO:  0.8870694429149436
Fermi energy:       0.8774910369
[2.     2.     2.     2.     2.     2.     2.     2.     2.     2.
 2.     2.     2.     2.     2.     2.     2.     2.     2.     2.
 2.     2.     1.9999 1.5673 0.2567 0.0973 0.0475 0.0313]
entropy correction =  -0.012934215323055219
cycle= 8 E= -88.4035783341424  delta_E= -3.12e-05  |g|= 0.00121  |ddm|= 0.0217
HOMO:  0.8710765139143452 LUMO:  0.8870554478981755
Fermi energy:       0.8774981989
[2.     2.     2.     2.     2.     2.     2.     2.     2.     2.
 2.     2.     2.     2.     2.     2.     2.     2.     2.     2.
 2.     2.     1.9999 1.5664 0.2576 0.0972 0.0475 0.0314]
entropy correction =  -0.012947982090686538
cycle= 9 E= -88.4035789799339  delta_E= -6.46e-07  |g|= 0.000331  |ddm|= 0.00234
HOMO:  0.8710346805756968 LUMO:  0.8869976792888682
Fermi energy:       0.8774591867
[2.     2.     2.     2.     2.     2.     2.     2.     2.     2.
 2.     2.     2.     2.     2.     2.     2.     2.     2.     2.
 2.     2.     1.9999 1.5666 0.2585 0.0964 0.0474 0.0313]
entropy correction =  -0.012938279156496056
cycle= 10 E= -88.403579045262  delta_E= -6.53e-08  |g|= 6.14e-05  |ddm|= 0.00127
HOMO:  0.8710378944190085 LUMO:  0.8869972865082728
Fermi energy:       0.8774611960
[2.     2.     2.     2.     2.     2.     2.     2.     2.     2.
 2.     2.     2.     2.     2.     2.     2.     2.     2.     2.
 2.     2.     1.9999 1.5665 0.2586 0.0964 0.0474 0.0313]
entropy correction =  -0.012939465707704783
cycle= 11 E= -88.4035790467878  delta_E= -1.53e-09  |g|= 3.36e-05  |ddm|= 0.000177
HOMO:  0.8710389637654969 LUMO:  0.8869975949724644
Fermi energy:       0.8774619966
[2.     2.     2.     2.     2.     2.     2.     2.     2.     2.
 2.     2.     2.     2.     2.     2.     2.     2.     2.     2.
 2.     2.     1.9999 1.5665 0.2586 0.0964 0.0474 0.0313]
entropy correction =  -0.01293975141382292
cycle= 12 E= -88.4035790472598  delta_E= -4.72e-10  |g|= 4.7e-06  |ddm|= 5.88e-05
HOMO:  0.8710371954991548 LUMO:  0.8869966577037284
Fermi energy:       0.8774607600
[2.     2.     2.     2.     2.     2.     2.     2.     2.     2.
 2.     2.     2.     2.     2.     2.     2.     2.     2.     2.
 2.     2.     1.9999 1.5665 0.2586 0.0963 0.0474 0.0313]
entropy correction =  -0.012939016442342618
Extra cycle  E= -88.4035790472225  delta_E= 3.73e-11  |g|= 9.71e-06  |ddm|= 3.52e-05
entropy correction =  -0.012939016442342618
scf energies:
EA (no vemb contrib.) =  -445.5144424888484
EB (no vemb contrib.) =  -181.57381408119068
W =  -626.6585619569574
P_imp change (scf - non-scf):  0.2119849252122404
P_bath change (scf - non-scf):  0.25467202441131426
|P_frag + P_env - P_ref| =  0.7341925736175746
max element of (P_frag + P_env - P_ref) =  0.07454061702965054
mo orthogonality:
[[-6.5916e-04  1.2262e-02  1.1040e-04  2.1291e-04  2.4586e-02  2.4250e-05
  -1.8217e-04 -3.8794e-03  2.4993e-04 -1.2809e-03 -2.5290e-04  2.0902e-03
  -5.0555e-04 -2.5870e-05 -4.3224e-03 -8.2938e-02 -1.3151e-03  4.0616e-04
   6.6503e-05 -4.7123e-04  5.0277e-03 -6.2468e-04  8.5250e-02  2.8599e-04
   2.8294e-04  2.5543e-04  5.1203e-03  1.0250e-01  4.9300e-03  3.8475e-03]
 [ 1.5615e-02  3.9066e-04  7.9063e-05  5.8623e-05  1.3452e-03  5.0726e-05
   5.7114e-03 -4.4968e-05  1.0037e-03 -6.1648e-05  2.4108e-03  5.1880e-04
  -4.7820e-06  9.7108e-04  7.7814e-02 -4.5080e-03  7.4347e-04  3.5108e-04
  -3.8793e-04 -1.8355e-03 -9.6456e-02  2.2129e-03  4.4183e-03  2.6589e-04
   3.3633e-06  5.4232e-04 -8.6349e-02  5.7630e-03  5.6318e-03 -2.9004e-03]
 [-1.3338e-03  7.8846e-03 -5.0074e-04  2.7175e-04 -1.1014e-02 -3.5179e-04
   3.1644e-03 -1.0479e-02  1.3106e-03 -1.2580e-03 -1.1442e-04 -1.3479e-04
  -1.4711e-04 -6.6216e-05 -8.7912e-03 -3.2952e-02 -1.5702e-03 -2.8085e-03
  -1.3536e-04  6.0650e-05 -5.1140e-03  1.7680e-04 -3.4298e-02  3.2261e-04
  -4.4968e-04  1.1301e-03  8.2202e-03 -1.9063e-02  3.6606e-03 -3.8192e-03]
 [-5.0683e-03 -2.2258e-03 -4.0132e-04  3.0364e-04  3.2403e-03 -8.0245e-04
   9.7973e-03  3.4748e-03  1.6745e-03  5.0858e-04 -1.4884e-04 -6.3533e-04
  -3.0791e-06 -2.4874e-04 -3.0138e-02  9.7343e-03 -2.6209e-03 -2.2238e-03
  -8.4919e-05 -3.7690e-04 -1.7964e-02  8.4739e-05  1.0033e-02  3.2595e-04
  -7.4432e-05  2.0253e-03  2.7054e-02  5.7004e-03 -1.3912e-03  2.6064e-03]
 [ 4.9387e-04 -3.9397e-04 -8.5026e-03  1.6819e-03  5.1352e-04 -3.7841e-03
  -6.0660e-04  4.3147e-04 -1.3804e-04 -9.7941e-05  2.3701e-03 -9.3553e-03
  -7.6250e-04 -7.8362e-05  2.8062e-03  1.3001e-03 -1.1990e-02 -4.3960e-02
   4.4258e-05  7.9087e-06  1.5495e-03 -1.5045e-03  1.6552e-03  5.8812e-03
   5.9373e-05  1.0117e-02 -1.1745e-03  9.6366e-04  2.0716e-02 -6.1695e-03]
 [ 2.3054e-04 -3.9163e-05  3.0580e-03  4.8775e-03 -6.3851e-05 -1.0571e-02
  -9.1139e-05 -1.4148e-04 -2.9376e-04 -4.7885e-05  6.4483e-03  3.3386e-03
   2.6289e-04 -1.2469e-04  1.7228e-03  4.0685e-04 -3.4988e-02  1.5665e-02
  -2.7358e-04 -1.0692e-06  9.3912e-04 -4.0932e-03 -3.2130e-04 -2.1635e-03
  -7.0341e-04  2.9418e-02 -1.5645e-03 -3.2885e-06 -6.4212e-03  1.6401e-03]
 [-1.3105e-05  3.7227e-05  8.0045e-06  5.5893e-05 -1.0675e-04 -8.9923e-05
  -3.6937e-03  2.0428e-03  1.8966e-02 -6.1786e-03  7.3984e-05  3.0554e-04
   2.0038e-04  2.7921e-05 -1.2767e-04 -1.6430e-04 -3.2843e-04 -3.3046e-05
   1.7029e-02  6.6275e-05 -2.0070e-04 -2.4430e-04 -2.5452e-04 -9.4192e-06
   5.2556e-02 -1.6247e-05  5.1537e-04  7.4824e-04 -5.1965e-03 -2.6461e-02]
 [ 5.9401e-06  2.5314e-05  9.0865e-05  5.8652e-05  5.7234e-05 -9.8241e-05
  -1.6846e-03 -7.7802e-04  8.4560e-03  1.3959e-02  5.8231e-05 -6.2648e-04
   3.6452e-05 -1.8121e-04  1.7094e-04 -1.5349e-04 -3.5750e-04  6.6075e-04
   7.4331e-03  3.0167e-05  6.3948e-05 -1.1683e-04  7.0688e-06 -2.5407e-05
   2.2875e-02  4.8168e-05 -9.8772e-04 -2.5469e-03  1.1419e-02  6.0905e-02]
 [-5.7127e-04  1.6822e-04  5.1848e-06  8.7423e-05  1.3579e-03  1.1248e-04
  -2.0452e-03  1.7325e-03  5.1230e-03 -1.9427e-04  3.4701e-04  1.5626e-04
  -1.1341e-03  2.5542e-03  5.3309e-04 -6.9043e-04  2.9702e-04 -1.4405e-05
  -4.6004e-03 -3.2073e-04 -3.1965e-04 -5.0240e-04  5.1525e-04 -1.2731e-04
   1.1159e-03  7.9465e-05 -7.0910e-03 -1.2306e-02 -4.1951e-05 -5.9876e-04]
 [ 4.4989e-04 -7.8377e-05  5.3033e-05 -1.9792e-04  3.5023e-03 -3.2172e-04
  -5.4881e-04  4.0827e-03  1.4074e-04  4.0959e-03 -6.3192e-04 -5.3392e-04
   6.1875e-03  2.0278e-04 -2.6248e-05 -1.5926e-03 -9.4036e-04  1.1977e-04
  -5.3445e-04  1.7128e-03  5.0099e-05  1.3633e-03  1.5183e-03  1.6955e-03
   5.7854e-05 -1.9526e-04  5.3066e-03 -1.8878e-02 -9.6601e-04 -2.2042e-03]
 [ 6.5886e-04 -9.2147e-06 -1.0453e-05 -2.0293e-04 -1.3308e-03 -3.0475e-04
   5.9286e-03 -6.3567e-04  1.6935e-03 -6.0479e-03 -4.9702e-04  1.1010e-05
   2.8520e-03  1.1857e-03 -2.5348e-03  7.0042e-04 -6.6468e-04 -7.7685e-05
  -4.0466e-04  7.9837e-04  1.7000e-03  1.0478e-03 -6.4210e-04 -1.5961e-04
   1.5218e-04 -2.3983e-04  8.6688e-03  8.5161e-03  2.1488e-04  3.0735e-03]
 [ 7.7336e-04  1.3208e-03  7.9154e-07 -6.9301e-05 -6.6825e-03 -1.2951e-04
   2.6333e-04 -1.0753e-02  1.9095e-03  2.2335e-03 -3.8115e-04 -6.8506e-04
   1.5416e-03  1.4435e-04 -3.1949e-04  2.3235e-03 -3.4029e-04  1.5576e-05
  -8.3572e-04  3.3225e-04  2.6655e-04  5.9067e-04 -3.6851e-03 -2.7635e-04
   2.2732e-04 -2.6128e-04  8.4175e-03  7.0432e-03 -1.6651e-03  4.6968e-04]
 [ 7.5805e-04 -1.1949e-04  1.1836e-05  6.2643e-05 -1.7560e-03  3.2293e-05
  -7.1744e-03 -1.5962e-03 -6.0962e-04 -4.8576e-03 -1.7334e-04 -8.8872e-05
   2.2764e-03 -2.7640e-03  2.4471e-03  8.3478e-04 -6.6364e-05  2.5300e-05
  -6.0052e-04  5.8581e-04 -1.5496e-03  8.4572e-05 -6.4745e-04 -3.7224e-04
   1.8330e-04 -8.4748e-05  7.7809e-03  1.3194e-02  5.1485e-04  2.4899e-03]
 [ 7.5074e-03 -2.8544e-04 -4.1251e-05 -3.7806e-04  9.6391e-04 -6.1292e-04
  -1.1357e-03  1.3467e-03  5.2584e-04  8.6530e-04 -1.4749e-03  1.3172e-05
  -1.2008e-03 -1.8022e-03 -2.5232e-03 -3.7643e-04 -1.8444e-03 -8.4706e-05
  -6.7807e-04 -2.5728e-04  1.8500e-03  2.7471e-03  5.4007e-04 -3.3849e-04
   1.5393e-04 -7.3598e-04  8.8953e-02 -2.1783e-03 -5.3384e-03  2.7741e-03]
 [ 2.5034e-03  5.3284e-04  2.7544e-05 -4.4039e-04  2.3949e-04 -6.4992e-04
  -3.7172e-03 -9.9478e-04 -2.5600e-03 -1.0891e-03 -1.5073e-03 -8.4459e-05
   2.9549e-04  6.3175e-03  5.6780e-04 -3.5039e-04 -2.3906e-03 -7.0647e-06
   1.5079e-03  1.0211e-04 -2.0362e-04  3.7252e-03 -1.1019e-04  9.8010e-05
  -4.2366e-04 -6.4457e-04  2.9286e-02 -1.5549e-02 -2.4503e-03  1.1080e-03]
 [ 1.6345e-04 -4.3006e-03  8.5302e-05 -1.8405e-04 -5.7814e-03 -1.1352e-04
  -3.4182e-04  1.1088e-03  3.5125e-06  1.0190e-03 -2.8603e-04 -3.4315e-05
   2.6282e-04  1.0974e-03  1.8290e-05  4.7819e-03 -4.3009e-04  3.2979e-04
  -9.0065e-05  1.2348e-04 -1.0399e-06  7.2406e-04 -3.2184e-04  3.4819e-03
   4.8551e-04  2.6817e-05  3.6253e-03  1.4335e-01  7.8363e-03  3.1980e-03]
 [ 1.5622e-04 -2.7692e-04  1.6614e-04  1.5510e-02 -6.5402e-05  2.3733e-02
  -2.2783e-03 -5.3368e-04 -1.3037e-04  2.2010e-05  5.4779e-02  1.8048e-05
   9.9041e-05 -2.0125e-03 -2.3956e-03 -1.1913e-03  7.5680e-02  1.0376e-03
  -4.6345e-05 -1.0690e-03 -2.8287e-03 -1.1743e-01 -7.0999e-04  3.7769e-03
  -5.3140e-04  1.7781e-02  3.5350e-03  7.2238e-04 -7.1829e-05  1.8660e-04]
 [-1.4558e-05  1.1902e-05  1.2698e-02 -8.5305e-05 -2.2744e-05 -2.4808e-04
  -2.9486e-05 -1.5306e-04 -6.1504e-05 -4.6473e-04 -6.9395e-04  4.2749e-03
   2.8108e-04  1.6256e-05  6.1049e-05  4.0417e-04 -1.0418e-03  2.1659e-02
   1.3836e-04 -7.8899e-05  2.8529e-04  1.4720e-03  4.8250e-05  3.0991e-01
   1.2930e-05 -4.4716e-04  3.8907e-03 -2.5469e-03  4.1432e-02 -7.7252e-03]]
|P_imp-P_imp_0| =  0.2119849252122404
max(P_imp-P_imp_0) =  0.02483979210349374
|P_bath-P_bath_0| =  0.25467202441131426
max(P_bath-P_bath_0) =  0.028197327528372368
time of total calc time : 76280.130  (cpu),  2010.874  (wall) 
Skip  = number of BFGS updates skipped
Nact  = number of active bounds at final generalized Cauchy point
Projg = norm of the final projected gradient
F     = final function value

           * * *

   N    Tit     Tnf  Tnint  Skip  Nact     Projg        F
 4278     50     54      1     0     0   1.841D-01   1.517D-01
  F =  0.15165328334498634     

STOP: TOTAL NO. of ITERATIONS REACHED LIMIT                 

 Cauchy                time 0.000E+00 seconds.
 Subspace minimization time 0.000E+00 seconds.
 Line search           time 0.000E+00 seconds.

 Total User time 0.000E+00 seconds.

