#INFO: **** input file is /tigress/xingz/pydmfet/examples/research/proj/Cu2/dmfet/Cu2.py ****
from pydmfet import locints, sdmfet, oep, tools, dfet_ao, proj_ao
from pydmfet.dfet_ao import dfet
from pydmfet.qcwrap.pyscf_rks_ao import rks_ao
from pyscf import gto, scf,dft, ao2mo,cc
import numpy as np
from pyscf.tools import molden, cubegen
import copy,time
from pydmfet.tools.sym import h_lattice_sym_tab
import time

t0 = (time.clock(), time.time())


bas = 'lanl2dz'
ecp = 'lanl2dz'
temp = 0.005


mol = gto.Mole()
mol.atom = open('Cu2.xyz').read()
mol.basis = bas
mol.ecp = ecp
mol.charge = -2
mol.build(max_memory = 16000, verbose=4)

mf = rks_ao(mol,smear_sigma = temp)
mf.xc = 'pbe,pbe'
mf.max_cycle = 50
mf.scf(dm0=None)


natoms = mol.natm
impAtom = np.zeros([natoms], dtype=int)
for i in range(2):
    impAtom[i] = 1

ghost_frag = 1-impAtom
ghost_env = 1-ghost_frag

mol_frag = gto.Mole()
mol_frag.atom = tools.add_ghost(mol.atom, ghost_frag)
mol_frag.basis = bas
mol_frag.ecp = ecp
mol_frag.charge = 4
mol_frag.build(max_memory = 16000,verbose = 4)

mol_env = gto.Mole()
mol_env.atom = tools.add_ghost(mol.atom, ghost_env)
mol_env.basis =  bas
mol_env.ecp = ecp
mol_env.charge = -6
mol_env.build(max_memory = 16000,verbose = 4)

Ne_frag = 34
Ne_env = 48

boundary_atoms = None
boundary_atoms2 =None

umat = None
umat = np.load("umat.npy")

params = oep.OEPparams(algorithm = 'leastsq', opt_method = 'L-BFGS-B', diffP_tol=1e-3, outer_maxit = 20)
params.options['ftol'] = 1e-9
params.options['gtol'] = 1e-3
params.options['maxiter'] = 50
params.options['svd_thresh'] = 1e-2

theDMFET = dfet.DFET(mf, mol_frag, mol_env,Ne_frag,Ne_env,\
                     boundary_atoms=boundary_atoms, boundary_atoms2=boundary_atoms2,umat = umat,\
                     oep_params=params, smear_sigma=temp, ecw_method = 'hf',mf_method = mf.xc, plot_dens=True,\
                     scf_max_cycle = 200)

umat = theDMFET.embedding_potential()

t1 = tools.timer("total calc time", t0)
#INFO: ******************** input file end ********************


System: uname_result(system='Linux', node='tiger-i25c1n4', release='3.10.0-957.27.2.el7.x86_64', version='#1 SMP Tue Jul 30 11:12:20 EDT 2019', machine='x86_64', processor='x86_64')  Threads 40
Python 3.7.0 (default, Jun 28 2018, 13:15:42) 
[GCC 7.2.0]
numpy 1.16.4  scipy 1.4.0.dev0+0f78e0f
Date: Sat Sep  7 17:49:18 2019
PySCF version 1.5
PySCF path  /home/xingz/.local/lib/python3.7/site-packages/pyscf

[CONFIG] conf_file None
[INPUT] verbose = 4
[INPUT] num. atoms = 8
[INPUT] num. electrons = 82
[INPUT] charge = -2
[INPUT] spin (= nelec alpha-beta = 2S) = 0
[INPUT] symmetry False subgroup None
[INPUT] Mole.unit = angstrom
[INPUT]  1 Cu    -0.441980000000   1.042360000000  -0.035730000000 AA   -0.835221152535   1.969774923202  -0.067519914431 Bohr
[INPUT]  2 Cu     2.942440000000   1.248890000000   0.035730000000 AA    5.560405737965   2.360060059708   0.067519914431 Bohr
[INPUT]  3 Cl    -1.897990000000  -0.682570000000   0.075050000000 AA   -3.586681287163  -1.289870360844   0.141823945649 Bohr
[INPUT]  4 Cl    -2.090880000000   2.577820000000  -0.212080000000 AA   -3.951190559331   4.871373798426  -0.400773116498 Bohr
[INPUT]  5 Cl     1.158810000000   2.690810000000  -0.136080000000 AA    2.189833530407   5.084893953241  -0.257153931031 Bohr
[INPUT]  6 Cl     1.341650000000  -0.399560000000   0.136080000000 AA    2.535351055023  -0.755058970331   0.257153931031 Bohr
[INPUT]  7 Cl     4.398440000000   2.973820000000  -0.075050000000 AA    8.311846975332   5.619705343754  -0.141823945649 Bohr
[INPUT]  8 Cl     4.591340000000  -0.286580000000   0.212080000000 AA    8.676375144761  -0.541557712778   0.400773116498 Bohr

nuclear repulsion = 451.217501293853
number of shells = 38
number of NR pGTOs = 162
number of NR cGTOs = 92
basis = lanl2dz
ecp = lanl2dz
CPU time:         4.59
rks_ao.ne_frozen =  0


******** <class 'pydmfet.qcwrap.pyscf_rks_ao.rks_ao'> flags ********
method = rks_ao-RKS-RHF
initial guess = minao
damping factor = 0
level shift factor = 0
DIIS = <class 'pyscf.scf.diis.CDIIS'>
DIIS start cycle = 1
DIIS space = 8
SCF tol = 1e-09
SCF gradient tol = None
max. SCF cycles = 50
direct_scf = False
chkfile to save SCF result = /tmp/tmpvt7sqolt
max_memory 16000 MB (current use 71 MB)
XC functionals = pbe,pbe
small_rho_cutoff = 1e-07
radial grids: 
    Treutler-Ahlrichs (JCP 102, 346 (M4)) radial grids
    
becke partition: Becke, JCP, 88, 2547 (1988)
pruning grids: <function nwchem_prune at 0x2ab371397400>
grids dens level: 3
symmetrized grids: False
atomic radii adjust function: <function treutler_atomic_radii_adjust at 0x2ab371397378>
Set gradient conv threshold to 3.16228e-05
tot grids = 154128
init E= -467.462792451998
HOMO:  0.21874871437075996 LUMO:  0.22831437501938673
Fermi energy:       0.2235718634
[2.     2.     2.     2.     2.     2.     2.     2.     2.     2.
 2.     2.     2.     2.     2.     2.     2.     2.     2.     2.
 2.     2.     2.     2.     2.     2.     2.     2.     2.     2.
 2.     2.     2.     2.     2.     2.     2.     2.     2.     1.9935
 1.4481 0.5584]
entropy correction =  -0.012030461857613669
cycle= 1 E= -410.105804071395  delta_E= 57.4  |g|= 8.39  |ddm|= 25.9
HOMO:  -1.563009642072625 LUMO:  -1.5367266498379095
Fermi energy:      -1.5499972181
[2.0000e+00 2.0000e+00 2.0000e+00 2.0000e+00 2.0000e+00 2.0000e+00
 2.0000e+00 2.0000e+00 2.0000e+00 2.0000e+00 2.0000e+00 2.0000e+00
 2.0000e+00 2.0000e+00 2.0000e+00 2.0000e+00 2.0000e+00 2.0000e+00
 2.0000e+00 2.0000e+00 2.0000e+00 2.0000e+00 2.0000e+00 2.0000e+00
 2.0000e+00 2.0000e+00 2.0000e+00 2.0000e+00 2.0000e+00 2.0000e+00
 2.0000e+00 2.0000e+00 2.0000e+00 2.0000e+00 2.0000e+00 2.0000e+00
 2.0000e+00 2.0000e+00 2.0000e+00 1.9796e+00 1.8620e+00 1.3147e-01
 2.6598e-02 2.7833e-04]
entropy correction =  -0.006223922518914638
cycle= 2 E= -401.538612213432  delta_E= 8.57  |g|= 7.31  |ddm|= 29.4
HOMO:  -0.13457902039485498 LUMO:  -0.05948338425678455
Fermi energy:      -0.0972415566
[2.0000e+00 2.0000e+00 2.0000e+00 2.0000e+00 2.0000e+00 2.0000e+00
 2.0000e+00 2.0000e+00 2.0000e+00 2.0000e+00 2.0000e+00 2.0000e+00
 2.0000e+00 2.0000e+00 2.0000e+00 2.0000e+00 2.0000e+00 2.0000e+00
 2.0000e+00 2.0000e+00 2.0000e+00 2.0000e+00 2.0000e+00 2.0000e+00
 2.0000e+00 2.0000e+00 2.0000e+00 2.0000e+00 2.0000e+00 2.0000e+00
 2.0000e+00 2.0000e+00 2.0000e+00 2.0000e+00 2.0000e+00 2.0000e+00
 2.0000e+00 2.0000e+00 2.0000e+00 2.0000e+00 1.9989e+00 1.0500e-03]
entropy correction =  -9.862463108496476e-05
cycle= 3 E= -466.993953695777  delta_E= -65.5  |g|= 5.85  |ddm|= 17.5
HOMO:  -0.19632377953861402 LUMO:  -0.1959779127416147
Fermi energy:      -0.1928443984
[2.     2.     2.     2.     2.     2.     2.     2.     2.     2.
 2.     2.     2.     2.     2.     2.     2.     2.     2.     2.
 2.     2.     2.     2.     2.     2.     2.     2.     2.     2.
 2.     2.     1.9998 1.9993 1.9979 1.9965 1.9471 1.9432 1.7416 1.7367
 1.3345 1.3035]
entropy correction =  -0.02333743947619057
cycle= 4 E= -479.585920348136  delta_E= -12.6  |g|= 3.08  |ddm|=   11
HOMO:  -0.05933827387168656 LUMO:  -0.058346572330465946
Fermi energy:      -0.0587610219
[2.     2.     2.     2.     2.     2.     2.     2.     2.     2.
 2.     2.     2.     2.     2.     2.     2.     2.     2.     2.
 2.     2.     2.     2.     2.     2.     2.     2.     2.     2.
 2.     2.     2.     2.     2.     2.     2.     2.     1.9952 1.9886
 1.0577 0.9586]
entropy correction =  -0.014359029431147743
cycle= 5 E= -480.692882283188  delta_E= -1.11  |g|= 2.31  |ddm|= 2.58
HOMO:  -0.08914554980589146 LUMO:  -0.08619386496823421
Fermi energy:      -0.0862274399
[2.     2.     2.     2.     2.     2.     2.     2.     2.     2.
 2.     2.     2.     2.     2.     2.     2.     2.     2.     2.
 2.     2.     2.     2.     2.     2.     2.     2.     2.     2.
 2.     2.     2.     1.9996 1.9996 1.9987 1.9985 1.9947 1.9796 1.7489
 1.2838 0.9966]
entropy correction =  -0.018143353044551374
cycle= 6 E= -481.537345800991  delta_E= -0.844  |g|= 1.68  |ddm|= 1.24
HOMO:  -0.036723945372857225 LUMO:  -0.0366669192523807
Fermi energy:      -0.0355754632
[2.     2.     2.     2.     2.     2.     2.     2.     2.     2.
 2.     2.     2.     2.     2.     2.     2.     2.     2.     2.
 2.     2.     2.     2.     2.     2.     2.     2.     2.     2.
 2.     2.     1.9994 1.9978 1.9955 1.9897 1.9852 1.9687 1.9249 1.9157
 1.1143 1.1087]
entropy correction =  -0.018924041241955836
cycle= 7 E= -481.434005675675  delta_E= 0.103  |g|= 1.83  |ddm|= 1.23
HOMO:  -0.03173842005107212 LUMO:  -0.028304041170062806
Fermi energy:      -0.0293123723
[2.     2.     2.     2.     2.     2.     2.     2.     2.     2.
 2.     2.     2.     2.     2.     2.     2.     2.     2.     2.
 2.     2.     2.     2.     2.     2.     2.     2.     2.     2.
 2.     2.     1.9999 1.9995 1.9994 1.9991 1.9991 1.9983 1.9857 1.8815
 1.238  0.8995]
entropy correction =  -0.016403779535535217
cycle= 8 E= -481.849488238143  delta_E= -0.415  |g|= 1.29  |ddm|= 1.31
HOMO:  -0.01033337674821631 LUMO:  0.000707460734302345
Fermi energy:      -0.0039251597
[2.     2.     2.     2.     2.     2.     2.     2.     2.     2.
 2.     2.     2.     2.     2.     2.     2.     2.     2.     2.
 2.     2.     2.     2.     2.     2.     2.     2.     2.     2.
 2.     1.9993 1.9989 1.9983 1.9929 1.9922 1.9893 1.984  1.9793 1.9331
 1.5655 0.5673]
entropy correction =  -0.014677098352075481
cycle= 9 E= -482.044475986724  delta_E= -0.195  |g|= 1.07  |ddm|= 0.906
HOMO:  0.06987607271837018 LUMO:  0.08736480510105377
Fermi energy:       0.0786614214
[2.     2.     2.     2.     2.     2.     2.     2.     2.     2.
 2.     2.     2.     2.     2.     2.     2.     2.     2.     2.
 2.     2.     2.     2.     2.     2.     2.     2.     2.     2.
 2.     2.     2.     2.     2.     2.     1.9997 1.9996 1.9983 1.9983
 1.7057 0.2985]
entropy correction =  -0.008565034219679506
cycle= 10 E= -482.032581884448  delta_E= 0.0119  |g|= 0.915  |ddm|= 1.43
HOMO:  0.08962837475354951 LUMO:  0.13004696659846496
Fermi energy:       0.1120849791
[2.     2.     2.     2.     2.     2.     2.     2.     2.     2.
 2.     2.     2.     2.     2.     2.     2.     2.     2.     2.
 2.     2.     2.     2.     2.     2.     2.     2.     2.     2.
 2.     2.     2.     2.     2.     2.     2.     1.9948 1.9914 1.9824
 1.9778 0.0536]
entropy correction =  -0.0028063847632806473
cycle= 11 E= -481.373880260937  delta_E= 0.659  |g|=  1.9  |ddm|= 2.31
HOMO:  0.05502647014444881 LUMO:  0.06384159101743345
Fermi energy:       0.0595089659
[2.     2.     2.     2.     2.     2.     2.     2.     2.     2.
 2.     2.     2.     2.     2.     2.     2.     2.     2.     2.
 2.     2.     2.     2.     2.     2.     2.     2.     2.     2.
 2.     2.     2.     1.9999 1.9995 1.9994 1.9993 1.9992 1.9982 1.992
 1.4205 0.592 ]
entropy correction =  -0.012547716245502685
cycle= 12 E= -482.271816528727  delta_E= -0.898  |g|= 0.277  |ddm|= 1.34
HOMO:  0.056438609623896345 LUMO:  0.07796708294318827
Fermi energy:       0.0675524748
[2.     2.     2.     2.     2.     2.     2.     2.     2.     2.
 2.     2.     2.     2.     2.     2.     2.     2.     2.     2.
 2.     2.     2.     2.     2.     2.     2.     2.     2.     2.
 2.     2.     2.     2.     2.     2.     1.9977 1.9957 1.995  1.9855
 1.8046 0.2215]
entropy correction =  -0.007530677330862081
cycle= 13 E= -482.060208341489  delta_E= 0.212  |g|= 0.773  |ddm|= 1.43
HOMO:  0.05617821661095221 LUMO:  0.06568034720611358
Fermi energy:       0.0610293925
[2.     2.     2.     2.     2.     2.     2.     2.     2.     2.
 2.     2.     2.     2.     2.     2.     2.     2.     2.     2.
 2.     2.     2.     2.     2.     2.     2.     2.     2.     2.
 2.     2.     1.9999 1.9998 1.9994 1.9992 1.9992 1.999  1.9978 1.9895
 1.4503 0.5658]
entropy correction =  -0.012402978238988558
cycle= 14 E= -482.267546248198  delta_E= -0.207  |g|= 0.281  |ddm|= 0.726
HOMO:  0.05930112594504264 LUMO:  0.06695698249701112
Fermi energy:       0.0631998465
[2.     2.     2.     2.     2.     2.     2.     2.     2.     2.
 2.     2.     2.     2.     2.     2.     2.     2.     2.     2.
 2.     2.     2.     2.     2.     2.     2.     2.     2.     2.
 2.     2.     1.9999 1.9998 1.9994 1.9994 1.9994 1.9993 1.9984 1.9921
 1.3712 0.641 ]
entropy correction =  -0.012948192695744156
cycle= 15 E= -482.288830977578  delta_E= -0.0213  |g|= 0.142  |ddm|= 0.204
HOMO:  0.06033518955668912 LUMO:  0.0685498298161285
Fermi energy:       0.0644944494
[2.     2.     2.     2.     2.     2.     2.     2.     2.     2.
 2.     2.     2.     2.     2.     2.     2.     2.     2.     2.
 2.     2.     2.     2.     2.     2.     2.     2.     2.     2.
 2.     2.     2.     1.9998 1.9996 1.9995 1.9994 1.9994 1.9988 1.9946
 1.3935 0.6153]
entropy correction =  -0.012649979461083394
cycle= 16 E= -482.286904599944  delta_E= 0.00193  |g|= 0.167  |ddm|= 0.0792
HOMO:  0.060259417188948214 LUMO:  0.06764775012058591
Fermi energy:       0.0640073155
[2.     2.     2.     2.     2.     2.     2.     2.     2.     2.
 2.     2.     2.     2.     2.     2.     2.     2.     2.     2.
 2.     2.     2.     2.     2.     2.     2.     2.     2.     2.
 2.     2.     2.     1.9998 1.9996 1.9995 1.9994 1.9992 1.9991 1.9941
 1.3582 0.6512]
entropy correction =  -0.012946747442289915
cycle= 17 E= -482.294507326086  delta_E= -0.0076  |g|= 0.0877  |ddm|= 0.123
HOMO:  0.06084883358732705 LUMO:  0.0680728269334399
Fermi energy:       0.0645100754
[2.     2.     2.     2.     2.     2.     2.     2.     2.     2.
 2.     2.     2.     2.     2.     2.     2.     2.     2.     2.
 2.     2.     2.     2.     2.     2.     2.     2.     2.     2.
 2.     2.     2.     1.9998 1.9996 1.9995 1.9995 1.9993 1.9991 1.9946
 1.3506 0.6581]
entropy correction =  -0.012975286930685528
cycle= 18 E= -482.296571538057  delta_E= -0.00206  |g|= 0.0329  |ddm|= 0.0713
HOMO:  0.06113391113941745 LUMO:  0.06835676587048878
Fermi energy:       0.0647923579
[2.     2.     2.     2.     2.     2.     2.     2.     2.     2.
 2.     2.     2.     2.     2.     2.     2.     2.     2.     2.
 2.     2.     2.     2.     2.     2.     2.     2.     2.     2.
 2.     2.     2.     1.9998 1.9996 1.9995 1.9995 1.9993 1.9992 1.9949
 1.3504 0.6579]
entropy correction =  -0.012962825254780017
cycle= 19 E= -482.29693569103  delta_E= -0.000364  |g|= 0.0135  |ddm|= 0.0338
HOMO:  0.061197307273181595 LUMO:  0.06843033122750658
Fermi energy:       0.0648595294
[2.     2.     2.     2.     2.     2.     2.     2.     2.     2.
 2.     2.     2.     2.     2.     2.     2.     2.     2.     2.
 2.     2.     2.     2.     2.     2.     2.     2.     2.     2.
 2.     2.     2.     1.9998 1.9996 1.9995 1.9995 1.9993 1.9992 1.995
 1.3507 0.6574]
entropy correction =  -0.012951982824055143
cycle= 20 E= -482.296785655052  delta_E= 0.00015  |g|= 0.0243  |ddm|= 0.0548
HOMO:  0.06124454865486008 LUMO:  0.06844552468931472
Fermi energy:       0.0648915484
[2.     2.     2.     2.     2.     2.     2.     2.     2.     2.
 2.     2.     2.     2.     2.     2.     2.     2.     2.     2.
 2.     2.     2.     2.     2.     2.     2.     2.     2.     2.
 2.     2.     2.     1.9998 1.9996 1.9995 1.9995 1.9993 1.9992 1.9949
 1.3493 0.6588]
entropy correction =  -0.012967051102626135
cycle= 21 E= -482.297009057675  delta_E= -0.000223  |g|= 0.00164  |ddm|= 0.0331
HOMO:  0.06122414635264991 LUMO:  0.068420427789013
Fermi energy:       0.0648688810
[2.     2.     2.     2.     2.     2.     2.     2.     2.     2.
 2.     2.     2.     2.     2.     2.     2.     2.     2.     2.
 2.     2.     2.     2.     2.     2.     2.     2.     2.     2.
 2.     2.     2.     1.9998 1.9996 1.9995 1.9995 1.9993 1.9992 1.9949
 1.3491 0.6591]
entropy correction =  -0.012969079620380089
cycle= 22 E= -482.297010234359  delta_E= -1.18e-06  |g|= 0.000475  |ddm|= 0.0031
HOMO:  0.061216535871744596 LUMO:  0.06841620980318454
Fermi energy:       0.0648628034
[2.     2.     2.     2.     2.     2.     2.     2.     2.     2.
 2.     2.     2.     2.     2.     2.     2.     2.     2.     2.
 2.     2.     2.     2.     2.     2.     2.     2.     2.     2.
 2.     2.     2.     1.9998 1.9996 1.9995 1.9995 1.9993 1.9992 1.9949
 1.3493 0.6589]
entropy correction =  -0.012967028929214402
cycle= 23 E= -482.297010284205  delta_E= -4.98e-08  |g|= 0.000306  |ddm|= 0.000873
HOMO:  0.06121217248680755 LUMO:  0.06841131151311217
Fermi energy:       0.0648582839
[2.     2.     2.     2.     2.     2.     2.     2.     2.     2.
 2.     2.     2.     2.     2.     2.     2.     2.     2.     2.
 2.     2.     2.     2.     2.     2.     2.     2.     2.     2.
 2.     2.     2.     1.9998 1.9996 1.9995 1.9995 1.9993 1.9992 1.9949
 1.3493 0.6589]
entropy correction =  -0.012967844874139253
cycle= 24 E= -482.297010287938  delta_E= -3.73e-09  |g|= 0.000268  |ddm|= 0.000349
HOMO:  0.061211471374329855 LUMO:  0.06841074844301746
Fermi energy:       0.0648576491
[2.     2.     2.     2.     2.     2.     2.     2.     2.     2.
 2.     2.     2.     2.     2.     2.     2.     2.     2.     2.
 2.     2.     2.     2.     2.     2.     2.     2.     2.     2.
 2.     2.     2.     1.9998 1.9996 1.9995 1.9995 1.9993 1.9992 1.9949
 1.3493 0.6589]
entropy correction =  -0.012967784457150706
cycle= 25 E= -482.297010314487  delta_E= -2.65e-08  |g|= 2.89e-05  |ddm|= 0.000432
HOMO:  0.061211083515745064 LUMO:  0.06841037897360064
Fermi energy:       0.0648572733
[2.     2.     2.     2.     2.     2.     2.     2.     2.     2.
 2.     2.     2.     2.     2.     2.     2.     2.     2.     2.
 2.     2.     2.     2.     2.     2.     2.     2.     2.     2.
 2.     2.     2.     1.9998 1.9996 1.9995 1.9995 1.9993 1.9992 1.9949
 1.3493 0.6589]
entropy correction =  -0.012967794882222732
cycle= 26 E= -482.29701031476  delta_E= -2.73e-10  |g|= 6.77e-06  |ddm|= 3.23e-05
HOMO:  0.06121112483113567 LUMO:  0.06841041305914347
Fermi energy:       0.0648573123
[2.     2.     2.     2.     2.     2.     2.     2.     2.     2.
 2.     2.     2.     2.     2.     2.     2.     2.     2.     2.
 2.     2.     2.     2.     2.     2.     2.     2.     2.     2.
 2.     2.     2.     1.9998 1.9996 1.9995 1.9995 1.9993 1.9992 1.9949
 1.3493 0.6589]
entropy correction =  -0.012967804444699438
Extra cycle  E= -482.297010308464  delta_E= 6.3e-09  |g|= 0.000137  |ddm|= 0.000194
converged SCF energy = -482.297010308464
#INFO: **** input file is /tigress/xingz/pydmfet/examples/research/proj/Cu2/dmfet/Cu2.py ****
from pydmfet import locints, sdmfet, oep, tools, dfet_ao, proj_ao
from pydmfet.dfet_ao import dfet
from pydmfet.qcwrap.pyscf_rks_ao import rks_ao
from pyscf import gto, scf,dft, ao2mo,cc
import numpy as np
from pyscf.tools import molden, cubegen
import copy,time
from pydmfet.tools.sym import h_lattice_sym_tab
import time

t0 = (time.clock(), time.time())


bas = 'lanl2dz'
ecp = 'lanl2dz'
temp = 0.005


mol = gto.Mole()
mol.atom = open('Cu2.xyz').read()
mol.basis = bas
mol.ecp = ecp
mol.charge = -2
mol.build(max_memory = 16000, verbose=4)

mf = rks_ao(mol,smear_sigma = temp)
mf.xc = 'pbe,pbe'
mf.max_cycle = 50
mf.scf(dm0=None)


natoms = mol.natm
impAtom = np.zeros([natoms], dtype=int)
for i in range(2):
    impAtom[i] = 1

ghost_frag = 1-impAtom
ghost_env = 1-ghost_frag

mol_frag = gto.Mole()
mol_frag.atom = tools.add_ghost(mol.atom, ghost_frag)
mol_frag.basis = bas
mol_frag.ecp = ecp
mol_frag.charge = 4
mol_frag.build(max_memory = 16000,verbose = 4)

mol_env = gto.Mole()
mol_env.atom = tools.add_ghost(mol.atom, ghost_env)
mol_env.basis =  bas
mol_env.ecp = ecp
mol_env.charge = -6
mol_env.build(max_memory = 16000,verbose = 4)

Ne_frag = 34
Ne_env = 48

boundary_atoms = None
boundary_atoms2 =None

umat = None
umat = np.load("umat.npy")

params = oep.OEPparams(algorithm = 'leastsq', opt_method = 'L-BFGS-B', diffP_tol=1e-3, outer_maxit = 20)
params.options['ftol'] = 1e-9
params.options['gtol'] = 1e-3
params.options['maxiter'] = 50
params.options['svd_thresh'] = 1e-2

theDMFET = dfet.DFET(mf, mol_frag, mol_env,Ne_frag,Ne_env,\
                     boundary_atoms=boundary_atoms, boundary_atoms2=boundary_atoms2,umat = umat,\
                     oep_params=params, smear_sigma=temp, ecw_method = 'hf',mf_method = mf.xc, plot_dens=True,\
                     scf_max_cycle = 200)

umat = theDMFET.embedding_potential()

t1 = tools.timer("total calc time", t0)
#INFO: ******************** input file end ********************


System: uname_result(system='Linux', node='tiger-i25c1n4', release='3.10.0-957.27.2.el7.x86_64', version='#1 SMP Tue Jul 30 11:12:20 EDT 2019', machine='x86_64', processor='x86_64')  Threads 40
Python 3.7.0 (default, Jun 28 2018, 13:15:42) 
[GCC 7.2.0]
numpy 1.16.4  scipy 1.4.0.dev0+0f78e0f
Date: Sat Sep  7 17:49:42 2019
PySCF version 1.5
PySCF path  /home/xingz/.local/lib/python3.7/site-packages/pyscf

[CONFIG] conf_file None
[INPUT] verbose = 4
[INPUT] num. atoms = 8
[INPUT] num. electrons = 34
[INPUT] charge = 4
[INPUT] spin (= nelec alpha-beta = 2S) = 0
[INPUT] symmetry False subgroup None
[INPUT] Mole.unit = angstrom
[INPUT]  1 Cu    -0.441980000000   1.042360000000  -0.035730000000 AA   -0.835221152535   1.969774923202  -0.067519914431 Bohr
[INPUT]  2 Cu     2.942440000000   1.248890000000   0.035730000000 AA    5.560405737965   2.360060059708   0.067519914431 Bohr
[INPUT]  3 GHOST-Cl  -1.897990000000  -0.682570000000   0.075050000000 AA   -3.586681287163  -1.289870360844   0.141823945649 Bohr
[INPUT]  4 GHOST-Cl  -2.090880000000   2.577820000000  -0.212080000000 AA   -3.951190559331   4.871373798426  -0.400773116498 Bohr
[INPUT]  5 GHOST-Cl   1.158810000000   2.690810000000  -0.136080000000 AA    2.189833530407   5.084893953241  -0.257153931031 Bohr
[INPUT]  6 GHOST-Cl   1.341650000000  -0.399560000000   0.136080000000 AA    2.535351055023  -0.755058970331   0.257153931031 Bohr
[INPUT]  7 GHOST-Cl   4.398440000000   2.973820000000  -0.075050000000 AA    8.311846975332   5.619705343754  -0.141823945649 Bohr
[INPUT]  8 GHOST-Cl   4.591340000000  -0.286580000000   0.212080000000 AA    8.676375144761  -0.541557712778   0.400773116498 Bohr

nuclear repulsion = 56.3275059639967
number of shells = 38
number of NR pGTOs = 162
number of NR cGTOs = 92
basis = lanl2dz
ecp = lanl2dz
CPU time:       589.17
#INFO: **** input file is /tigress/xingz/pydmfet/examples/research/proj/Cu2/dmfet/Cu2.py ****
from pydmfet import locints, sdmfet, oep, tools, dfet_ao, proj_ao
from pydmfet.dfet_ao import dfet
from pydmfet.qcwrap.pyscf_rks_ao import rks_ao
from pyscf import gto, scf,dft, ao2mo,cc
import numpy as np
from pyscf.tools import molden, cubegen
import copy,time
from pydmfet.tools.sym import h_lattice_sym_tab
import time

t0 = (time.clock(), time.time())


bas = 'lanl2dz'
ecp = 'lanl2dz'
temp = 0.005


mol = gto.Mole()
mol.atom = open('Cu2.xyz').read()
mol.basis = bas
mol.ecp = ecp
mol.charge = -2
mol.build(max_memory = 16000, verbose=4)

mf = rks_ao(mol,smear_sigma = temp)
mf.xc = 'pbe,pbe'
mf.max_cycle = 50
mf.scf(dm0=None)


natoms = mol.natm
impAtom = np.zeros([natoms], dtype=int)
for i in range(2):
    impAtom[i] = 1

ghost_frag = 1-impAtom
ghost_env = 1-ghost_frag

mol_frag = gto.Mole()
mol_frag.atom = tools.add_ghost(mol.atom, ghost_frag)
mol_frag.basis = bas
mol_frag.ecp = ecp
mol_frag.charge = 4
mol_frag.build(max_memory = 16000,verbose = 4)

mol_env = gto.Mole()
mol_env.atom = tools.add_ghost(mol.atom, ghost_env)
mol_env.basis =  bas
mol_env.ecp = ecp
mol_env.charge = -6
mol_env.build(max_memory = 16000,verbose = 4)

Ne_frag = 34
Ne_env = 48

boundary_atoms = None
boundary_atoms2 =None

umat = None
umat = np.load("umat.npy")

params = oep.OEPparams(algorithm = 'leastsq', opt_method = 'L-BFGS-B', diffP_tol=1e-3, outer_maxit = 20)
params.options['ftol'] = 1e-9
params.options['gtol'] = 1e-3
params.options['maxiter'] = 50
params.options['svd_thresh'] = 1e-2

theDMFET = dfet.DFET(mf, mol_frag, mol_env,Ne_frag,Ne_env,\
                     boundary_atoms=boundary_atoms, boundary_atoms2=boundary_atoms2,umat = umat,\
                     oep_params=params, smear_sigma=temp, ecw_method = 'hf',mf_method = mf.xc, plot_dens=True,\
                     scf_max_cycle = 200)

umat = theDMFET.embedding_potential()

t1 = tools.timer("total calc time", t0)
#INFO: ******************** input file end ********************


System: uname_result(system='Linux', node='tiger-i25c1n4', release='3.10.0-957.27.2.el7.x86_64', version='#1 SMP Tue Jul 30 11:12:20 EDT 2019', machine='x86_64', processor='x86_64')  Threads 40
Python 3.7.0 (default, Jun 28 2018, 13:15:42) 
[GCC 7.2.0]
numpy 1.16.4  scipy 1.4.0.dev0+0f78e0f
Date: Sat Sep  7 17:49:42 2019
PySCF version 1.5
PySCF path  /home/xingz/.local/lib/python3.7/site-packages/pyscf

[CONFIG] conf_file None
[INPUT] verbose = 4
[INPUT] num. atoms = 8
[INPUT] num. electrons = 48
[INPUT] charge = -6
[INPUT] spin (= nelec alpha-beta = 2S) = 0
[INPUT] symmetry False subgroup None
[INPUT] Mole.unit = angstrom
[INPUT]  1 GHOST-Cu  -0.441980000000   1.042360000000  -0.035730000000 AA   -0.835221152535   1.969774923202  -0.067519914431 Bohr
[INPUT]  2 GHOST-Cu   2.942440000000   1.248890000000   0.035730000000 AA    5.560405737965   2.360060059708   0.067519914431 Bohr
[INPUT]  3 Cl    -1.897990000000  -0.682570000000   0.075050000000 AA   -3.586681287163  -1.289870360844   0.141823945649 Bohr
[INPUT]  4 Cl    -2.090880000000   2.577820000000  -0.212080000000 AA   -3.951190559331   4.871373798426  -0.400773116498 Bohr
[INPUT]  5 Cl     1.158810000000   2.690810000000  -0.136080000000 AA    2.189833530407   5.084893953241  -0.257153931031 Bohr
[INPUT]  6 Cl     1.341650000000  -0.399560000000   0.136080000000 AA    2.535351055023  -0.755058970331   0.257153931031 Bohr
[INPUT]  7 Cl     4.398440000000   2.973820000000  -0.075050000000 AA    8.311846975332   5.619705343754  -0.141823945649 Bohr
[INPUT]  8 Cl     4.591340000000  -0.286580000000   0.212080000000 AA    8.676375144761  -0.541557712778   0.400773116498 Bohr

nuclear repulsion = 93.9042733852809
number of shells = 38
number of NR pGTOs = 162
number of NR cGTOs = 92
basis = lanl2dz
ecp = lanl2dz
CPU time:       589.61


******** <class 'pydmfet.dfet_ao.scf.EmbedSCF'> flags ********
method = EmbedSCF-RKS-RHF
initial guess = minao
damping factor = 0
level shift factor = 0
DIIS = <class 'pyscf.scf.diis.CDIIS'>
DIIS start cycle = 1
DIIS space = 8
SCF tol = 1e-09
SCF gradient tol = None
max. SCF cycles = 200
direct_scf = False
chkfile to save SCF result = /tmp/tmpnysahp1y
max_memory 16000 MB (current use 510 MB)
XC functionals = pbe,pbe
small_rho_cutoff = 1e-07
radial grids: 
    Treutler-Ahlrichs (JCP 102, 346 (M4)) radial grids
    
becke partition: Becke, JCP, 88, 2547 (1988)
pruning grids: <function nwchem_prune at 0x2ab371397400>
grids dens level: 3
symmetrized grids: False
atomic radii adjust function: <function treutler_atomic_radii_adjust at 0x2ab371397378>
Set gradient conv threshold to 3.16228e-05
tot grids = 120648
init E= -388.112618662577
HOMO: 0.19124812168978672 LUMO: 0.20231953892512136
mo_energy:
[-2.6656 -2.6624 -1.2645 -1.2625 -1.2623 -1.2622 -1.2603 -1.2588 -0.0625
 -0.0248  0.0027  0.0166  0.0491  0.0681  0.0751  0.1238  0.1912  0.2023
  0.2232  0.2325  0.2446  0.3028]
e_fermi =  0.19670612699579615
[2.000e+00 2.000e+00 2.000e+00 2.000e+00 2.000e+00 2.000e+00 2.000e+00
 2.000e+00 2.000e+00 2.000e+00 2.000e+00 2.000e+00 2.000e+00 2.000e+00
 2.000e+00 2.000e+00 1.497e+00 4.910e-01 9.909e-03 1.561e-03]
entropy correction =  -0.011594649894709066
cycle= 1 E= -325.108387087095  delta_E=   63  |g|=  9.9  |ddm|=  7.7
HOMO: -8.597225821543018 LUMO: -8.587036647418493
mo_energy:
[-12.909 -12.907 -11.254 -11.246 -11.236 -11.236 -11.231 -11.23   -8.619
  -8.617  -8.613  -8.612  -8.61   -8.606  -8.605  -8.603  -8.597  -8.587
  -3.163  -3.131  -2.556  -2.463]
e_fermi =  -8.589652296779898
[2.    2.    2.    2.    2.    2.    2.    2.    1.994 1.992 1.983 1.979
 1.964 1.933 1.912 1.86  1.64  0.744]
entropy correction =  -0.019584767227392
cycle= 2 E= -385.467108279214  delta_E= -60.4  |g|= 3.71  |ddm|= 7.84
HOMO: -1.7808523646025696 LUMO: -1.776341516999677
mo_energy:
[-5.839 -5.717 -4.408 -4.394 -4.349 -4.285 -4.274 -4.233 -1.91  -1.9
 -1.896 -1.887 -1.881 -1.8   -1.789 -1.787 -1.781 -1.776 -1.373 -1.284
 -1.013 -0.99 ]
e_fermi =  -1.7764979689231695
[2.    2.    2.    2.    2.    2.    2.    2.    2.    2.    2.    2.
 2.    1.982 1.835 1.789 1.41  0.984]
entropy correction =  -0.01972951603758968
cycle= 3 E= -388.487324474615  delta_E= -3.02  |g|= 1.59  |ddm|= 3.64
HOMO: -0.951740094632256 LUMO: -0.9472719036915345
mo_energy:
[-6.348 -4.914 -4.875 -4.83  -4.709 -3.275 -3.272 -3.266 -2.378 -2.376
 -2.35  -2.304 -2.303 -1.393 -1.052 -0.977 -0.952 -0.947 -0.912 -0.906
 -0.905 -0.892]
e_fermi =  -0.9494747613406636
[2.000e+00 2.000e+00 2.000e+00 2.000e+00 2.000e+00 2.000e+00 2.000e+00
 2.000e+00 2.000e+00 2.000e+00 2.000e+00 2.000e+00 2.000e+00 2.000e+00
 2.000e+00 1.992e+00 1.223e+00 7.832e-01 1.073e-03]
entropy correction =  -0.013700880362166896
cycle= 4 E= -352.202958903214  delta_E= 36.3  |g|= 13.2  |ddm|= 5.37
HOMO: -1.25455940280727 LUMO: -1.2474921705241182
mo_energy:
[-6.103 -5.135 -4.673 -4.634 -4.59  -3.691 -3.688 -3.683 -2.147 -2.145
 -2.119 -2.074 -2.072 -1.304 -1.262 -1.256 -1.255 -1.247 -1.237 -1.078
 -0.921 -0.916]
e_fermi =  -1.2489792842695981
[2.    2.    2.    2.    2.    2.    2.    2.    2.    2.    2.    2.
 2.    2.    1.853 1.633 1.507 0.852 0.155]
entropy correction =  -0.02253841700922377
cycle= 5 E= -382.46062821944  delta_E= -30.3  |g|= 4.87  |ddm|=  3.6
HOMO: -1.5275064385669417 LUMO: -1.5251338855859675
mo_energy:
[-5.658 -5.461 -4.234 -4.198 -4.158 -4.017 -4.017 -3.981 -1.737 -1.733
 -1.711 -1.67  -1.666 -1.538 -1.53  -1.529 -1.528 -1.525 -1.197 -1.118
 -0.886 -0.86 ]
e_fermi =  -1.522073611900573
[2.    2.    2.    2.    2.    2.    2.    2.    2.    2.    2.    2.
 2.    1.927 1.679 1.602 1.495 1.297]
entropy correction =  -0.023100144145574434
cycle= 6 E= -388.425131084546  delta_E= -5.96  |g|= 1.73  |ddm|= 2.53
HOMO: -1.4632495573320115 LUMO: -1.4550683024744306
mo_energy:
[-5.492 -5.41  -4.069 -4.035 -3.999 -3.973 -3.952 -3.938 -1.588 -1.584
 -1.564 -1.526 -1.521 -1.503 -1.497 -1.49  -1.463 -1.455 -1.169 -1.091
 -0.861 -0.841]
e_fermi =  -1.4591280598448277
[2.    2.    2.    2.    2.    2.    2.    2.    2.    2.    2.    2.
 2.    2.    1.999 1.996 1.39  0.615]
entropy correction =  -0.012520238049750545
cycle= 7 E= -388.550989575345  delta_E= -0.126  |g|= 1.52  |ddm|= 1.22
HOMO: -1.5001173172954598 LUMO: -1.4960574823279098
mo_energy:
[-5.472 -5.432 -4.046 -4.015 -3.988 -3.982 -3.982 -3.957 -1.568 -1.564
 -1.545 -1.51  -1.506 -1.505 -1.504 -1.502 -1.5   -1.496 -1.168 -1.093
 -0.861 -0.842]
e_fermi =  -1.4931446802938777
[2.    2.    2.    2.    2.    2.    2.    2.    2.    2.    2.    1.935
 1.867 1.816 1.809 1.687 1.603 1.283]
entropy correction =  -0.025951785173781126
cycle= 8 E= -389.042648523289  delta_E= -0.492  |g|= 1.05  |ddm|= 0.924
HOMO: -1.49917375878953 LUMO: -1.4901616271456242
mo_energy:
[-5.46  -5.436 -4.024 -4.007 -3.98  -3.98  -3.979 -3.979 -1.551 -1.548
 -1.533 -1.516 -1.513 -1.512 -1.507 -1.501 -1.499 -1.49  -1.166 -1.093
 -0.861 -0.841]
e_fermi =  -1.4918159080004139
[2.    2.    2.    2.    2.    2.    2.    2.    2.    2.    1.999 1.984
 1.973 1.963 1.899 1.719 1.627 0.836]
entropy correction =  -0.019805780068947457
cycle= 9 E= -389.181114224589  delta_E= -0.138  |g|= 0.842  |ddm|= 0.641
HOMO: -1.485295809089218 LUMO: -1.483073183536497
mo_energy:
[-5.459 -5.417 -4.018 -4.008 -3.982 -3.978 -3.961 -3.944 -1.548 -1.546
 -1.532 -1.51  -1.504 -1.496 -1.495 -1.486 -1.485 -1.483 -1.166 -1.09
 -0.86  -0.841]
e_fermi =  -1.4804051501591653
[2.    2.    2.    2.    2.    2.    2.    2.    2.    2.    2.    1.994
 1.981 1.91  1.897 1.504 1.453 1.261]
entropy correction =  -0.022660926250607723
cycle= 10 E= -388.666615844133  delta_E= 0.514  |g|= 1.42  |ddm|= 0.786
HOMO: -1.4526488348547666 LUMO: -1.4451548390323725
mo_energy:
[-5.45  -5.395 -4.037 -3.984 -3.96  -3.955 -3.943 -3.92  -1.544 -1.534
 -1.525 -1.501 -1.501 -1.49  -1.488 -1.475 -1.453 -1.445 -1.165 -1.088
 -0.859 -0.843]
e_fermi =  -1.448831497225344
[2.    2.    2.    2.    2.    2.    2.    2.    2.    2.    2.    2.
 2.    1.999 1.999 1.989 1.364 0.648]
entropy correction =  -0.012954491332824263
cycle= 11 E= -388.587295012077  delta_E= 0.0793  |g|= 1.47  |ddm|= 1.61
HOMO: -1.5006919195819852 LUMO: -1.4971845401291026
mo_energy:
[-5.445 -5.438 -4.014 -4.007 -4.003 -3.976 -3.969 -3.944 -1.535 -1.525
 -1.521 -1.52  -1.511 -1.505 -1.503 -1.501 -1.501 -1.497 -1.167 -1.093
 -0.862 -0.845]
e_fermi =  -1.493946173744483
[2.    2.    2.    2.    2.    2.    2.    2.    1.999 1.996 1.991 1.99
 1.93  1.819 1.739 1.634 1.588 1.313]
entropy correction =  -0.025460619236594245
cycle= 12 E= -389.437425817255  delta_E= -0.85  |g|= 0.151  |ddm|= 1.57
HOMO: -1.477774178850524 LUMO: -1.468805072595484
mo_energy:
[-5.427 -5.424 -3.99  -3.99  -3.977 -3.966 -3.951 -3.948 -1.521 -1.52
 -1.519 -1.514 -1.506 -1.496 -1.484 -1.482 -1.478 -1.469 -1.165 -1.09
 -0.86  -0.84 ]
e_fermi =  -1.4711583519902287
[2.    2.    2.    2.    2.    2.    2.    2.    2.    2.    2.    2.
 1.998 1.987 1.865 1.802 1.579 0.769]
entropy correction =  -0.017998818609073274
cycle= 13 E= -389.142905176458  delta_E= 0.295  |g|= 0.868  |ddm|= 1.38
HOMO: -1.5013174905560593 LUMO: -1.4929099517010733
mo_energy:
[-5.436 -5.432 -3.994 -3.986 -3.981 -3.976 -3.967 -3.967 -1.514 -1.513
 -1.51  -1.509 -1.507 -1.506 -1.505 -1.502 -1.501 -1.493 -1.166 -1.091
 -0.861 -0.843]
e_fermi =  -1.4922119676492025
[2.    2.    2.    2.    2.    2.    2.    2.    1.973 1.97  1.943 1.935
 1.902 1.881 1.859 1.746 1.721 1.07 ]
entropy correction =  -0.025739103203562257
cycle= 14 E= -389.34174340229  delta_E= -0.199  |g|= 0.558  |ddm|= 0.39
HOMO: -1.4954754390971456 LUMO: -1.4927000997609003
mo_energy:
[-5.431 -5.428 -3.991 -3.985 -3.984 -3.979 -3.961 -3.943 -1.512 -1.508
 -1.508 -1.504 -1.503 -1.502 -1.501 -1.496 -1.495 -1.493 -1.165 -1.091
 -0.861 -0.843]
e_fermi =  -1.4886439098309883
[2.    2.    2.    2.    2.    2.    2.    2.    1.981 1.957 1.955 1.908
 1.894 1.868 1.842 1.615 1.594 1.385]
entropy correction =  -0.02787916470165145
cycle= 15 E= -389.377765895127  delta_E= -0.036  |g|= 0.436  |ddm|= 0.804
HOMO: -1.4977370249077206 LUMO: -1.4929949270632668
mo_energy:
[-5.431 -5.428 -3.994 -3.981 -3.98  -3.971 -3.963 -3.956 -1.512 -1.512
 -1.504 -1.502 -1.502 -1.501 -1.5   -1.499 -1.498 -1.493 -1.166 -1.091
 -0.861 -0.843]
e_fermi =  -1.4891859310874616
[2.    2.    2.    2.    2.    2.    2.    2.    1.981 1.979 1.895 1.869
 1.861 1.835 1.792 1.732 1.694 1.363]
entropy correction =  -0.028798991882425816
cycle= 16 E= -389.471244602611  delta_E= -0.0935  |g|= 0.0585  |ddm|= 0.692
HOMO: -1.497210881894165 LUMO: -1.4920201507427702
mo_energy:
[-5.432 -5.429 -3.984 -3.982 -3.98  -3.978 -3.966 -3.962 -1.509 -1.509
 -1.506 -1.506 -1.505 -1.504 -1.503 -1.502 -1.497 -1.492 -1.165 -1.091
 -0.861 -0.843]
e_fermi =  -1.4902082426969117
[2.    2.    2.    2.    2.    2.    2.    2.    1.955 1.952 1.92  1.913
 1.909 1.887 1.865 1.815 1.605 1.179]
entropy correction =  -0.02699070556125446
cycle= 17 E= -389.463636599893  delta_E= 0.00761  |g|= 0.155  |ddm|= 0.358
HOMO: -1.5031752425466356 LUMO: -1.4970664465326489
mo_energy:
[-5.436 -5.431 -3.99  -3.987 -3.985 -3.983 -3.965 -3.959 -1.511 -1.511
 -1.508 -1.508 -1.506 -1.506 -1.505 -1.504 -1.503 -1.497 -1.166 -1.092
 -0.861 -0.843]
e_fermi =  -1.493694351973034
[2.    2.    2.    2.    2.    2.    2.    2.    1.941 1.935 1.893 1.884
 1.854 1.83  1.818 1.781 1.739 1.325]
entropy correction =  -0.029356895991355072
cycle= 18 E= -389.403227321854  delta_E= 0.0604  |g|= 0.422  |ddm|= 0.267
HOMO: -1.50245467058953 LUMO: -1.4968841736140999
mo_energy:
[-5.436 -5.432 -3.989 -3.987 -3.986 -3.983 -3.966 -3.96  -1.51  -1.51
 -1.509 -1.509 -1.507 -1.506 -1.505 -1.505 -1.502 -1.497 -1.166 -1.092
 -0.861 -0.843]
e_fermi =  -1.4937524185170745
[2.    2.    2.    2.    2.    2.    2.    2.    1.93  1.923 1.912 1.908
 1.857 1.846 1.823 1.796 1.701 1.303]
entropy correction =  -0.029068689232948804
cycle= 19 E= -389.422205380517  delta_E= -0.019  |g|= 0.363  |ddm|= 0.0736
HOMO: -1.502224288922035 LUMO: -1.4963349368358143
mo_energy:
[-5.437 -5.432 -3.989 -3.987 -3.986 -3.981 -3.967 -3.962 -1.511 -1.51
 -1.51  -1.509 -1.507 -1.507 -1.505 -1.505 -1.502 -1.496 -1.166 -1.092
 -0.861 -0.843]
e_fermi =  -1.4937370009290447
[2.    2.    2.    2.    2.    2.    2.    2.    1.94  1.932 1.918 1.912
 1.873 1.858 1.82  1.802 1.69  1.254]
entropy correction =  -0.02843136117686324
cycle= 20 E= -389.408617117719  delta_E= 0.0136  |g|= 0.406  |ddm|= 0.0731
HOMO: -1.5023093247160773 LUMO: -1.49639514161917
mo_energy:
[-5.438 -5.432 -3.989 -3.988 -3.987 -3.981 -3.971 -3.962 -1.513 -1.512
 -1.512 -1.509 -1.508 -1.507 -1.505 -1.504 -1.502 -1.496 -1.166 -1.092
 -0.861 -0.843]
e_fermi =  -1.4940223093601819
[2.    2.    2.    2.    2.    2.    2.    2.    1.952 1.952 1.945 1.911
 1.886 1.871 1.797 1.773 1.68  1.233]
entropy correction =  -0.027796770133377474
cycle= 21 E= -389.384998213096  delta_E= 0.0236  |g|= 0.471  |ddm|= 0.0613
HOMO: -1.5023798671790938 LUMO: -1.4960723133640235
mo_energy:
[-5.438 -5.432 -3.989 -3.988 -3.987 -3.98  -3.971 -3.962 -1.513 -1.513
 -1.512 -1.51  -1.508 -1.507 -1.505 -1.504 -1.502 -1.496 -1.166 -1.092
 -0.861 -0.843]
e_fermi =  -1.4939557797524037
[2.    2.    2.    2.    2.    2.    2.    2.    1.958 1.958 1.95  1.915
 1.885 1.867 1.8   1.772 1.687 1.209]
entropy correction =  -0.0274695453887186
cycle= 22 E= -389.360927695215  delta_E= 0.0241  |g|= 0.53  |ddm|= 0.0397
HOMO: -1.5010912851468938 LUMO: -1.495947692995763
mo_energy:
[-5.436 -5.433 -3.988 -3.986 -3.985 -3.983 -3.969 -3.963 -1.511 -1.511
 -1.51  -1.508 -1.508 -1.507 -1.507 -1.506 -1.501 -1.496 -1.166 -1.092
 -0.861 -0.843]
e_fermi =  -1.4936411634778026
[2.    2.    2.    2.    2.    2.    2.    2.    1.941 1.938 1.926 1.888
 1.884 1.865 1.861 1.837 1.632 1.227]
entropy correction =  -0.027914819422068655
cycle= 23 E= -389.456439858574  delta_E= -0.0955  |g|= 0.213  |ddm|= 0.169
HOMO: -1.5017160895020796 LUMO: -1.497849365895376
mo_energy:
[-5.433 -5.432 -3.99  -3.989 -3.986 -3.982 -3.959 -3.957 -1.51  -1.509
 -1.508 -1.506 -1.504 -1.504 -1.504 -1.503 -1.502 -1.498 -1.166 -1.092
 -0.861 -0.843]
e_fermi =  -1.4928014023387346
[2.    2.    2.    2.    2.    2.    2.    2.    1.943 1.921 1.903 1.874
 1.811 1.802 1.795 1.773 1.712 1.466]
entropy correction =  -0.0303780360975519
cycle= 24 E= -389.471240904928  delta_E= -0.0148  |g|= 0.035  |ddm|= 0.375
HOMO: -1.4999275574018842 LUMO: -1.4948277994325267
mo_energy:
[-5.432 -5.431 -3.987 -3.985 -3.981 -3.981 -3.961 -3.96  -1.507 -1.507
 -1.506 -1.506 -1.505 -1.504 -1.504 -1.504 -1.5   -1.495 -1.166 -1.091
 -0.861 -0.843]
e_fermi =  -1.4917320014448765
[2.    2.    2.    2.    2.    2.    2.    2.    1.914 1.912 1.899 1.892
 1.864 1.854 1.85  1.841 1.675 1.3  ]
entropy correction =  -0.029142184081416823
cycle= 25 E= -389.473351085771  delta_E= -0.00211  |g|= 0.073  |ddm|= 0.288
HOMO: -1.5012685904823253 LUMO: -1.4962087662358121
mo_energy:
[-5.433 -5.432 -3.987 -3.986 -3.983 -3.983 -3.963 -3.96  -1.508 -1.508
 -1.507 -1.507 -1.506 -1.506 -1.506 -1.505 -1.501 -1.496 -1.166 -1.092
 -0.861 -0.843]
e_fermi =  -1.4928862721392628
[2.    2.    2.    2.    2.    2.    2.    2.    1.911 1.899 1.886 1.885
 1.871 1.858 1.854 1.831 1.685 1.321]
entropy correction =  -0.029438867525650725
cycle= 26 E= -389.475411010693  delta_E= -0.00206  |g|= 0.019  |ddm|= 0.0799
HOMO: -1.5009641014745545 LUMO: -1.4958657131092947
mo_energy:
[-5.433 -5.432 -3.986 -3.985 -3.984 -3.982 -3.962 -3.962 -1.508 -1.507
 -1.507 -1.507 -1.506 -1.506 -1.506 -1.505 -1.501 -1.496 -1.166 -1.092
 -0.861 -0.843]
e_fermi =  -1.4927468151210206
[2.    2.    2.    2.    2.    2.    2.    2.    1.903 1.892 1.888 1.884
 1.877 1.867 1.864 1.847 1.676 1.302]
entropy correction =  -0.02925416759480051
cycle= 27 E= -389.474328771961  delta_E= 0.00108  |g|= 0.0582  |ddm|= 0.0858
HOMO: -1.5014505401228675 LUMO: -1.4963970096211083
mo_energy:
[-5.433 -5.432 -3.987 -3.986 -3.984 -3.984 -3.961 -3.961 -1.508 -1.507
 -1.507 -1.506 -1.506 -1.506 -1.506 -1.505 -1.501 -1.496 -1.166 -1.092
 -0.861 -0.843]
e_fermi =  -1.492895703492922
[2.    2.    2.    2.    2.    2.    2.    2.    1.908 1.882 1.88  1.874
 1.87  1.864 1.861 1.83  1.694 1.336]
entropy correction =  -0.02967505822961416
cycle= 28 E= -389.475436862736  delta_E= -0.00111  |g|= 0.0258  |ddm|= 0.0708
HOMO: -1.5011806754533359 LUMO: -1.4961242150948675
mo_energy:
[-5.433 -5.432 -3.987 -3.986 -3.984 -3.983 -3.962 -3.961 -1.508 -1.507
 -1.507 -1.506 -1.506 -1.506 -1.506 -1.505 -1.501 -1.496 -1.166 -1.092
 -0.861 -0.843]
e_fermi =  -1.492780327399658
[2.    2.    2.    2.    2.    2.    2.    2.    1.905 1.887 1.882 1.878
 1.871 1.866 1.864 1.838 1.686 1.322]
entropy correction =  -0.029509074625576125
cycle= 29 E= -389.475765076386  delta_E= -0.000328  |g|= 0.00135  |ddm|= 0.0367
HOMO: -1.50116977727603 LUMO: -1.4961140364873875
mo_energy:
[-5.433 -5.432 -3.986 -3.985 -3.984 -3.983 -3.962 -3.961 -1.508 -1.507
 -1.507 -1.506 -1.506 -1.506 -1.506 -1.505 -1.501 -1.496 -1.166 -1.092
 -0.861 -0.843]
e_fermi =  -1.4927931538436219
[2.    2.    2.    2.    2.    2.    2.    2.    1.905 1.886 1.882 1.878
 1.869 1.868 1.866 1.84  1.685 1.32 ]
entropy correction =  -0.029486183735825868
cycle= 30 E= -389.475768843618  delta_E= -3.77e-06  |g|= 0.00101  |ddm|= 0.0101
HOMO: -1.5011754846092924 LUMO: -1.4961209504305113
mo_energy:
[-5.433 -5.432 -3.986 -3.986 -3.984 -3.983 -3.962 -3.961 -1.508 -1.507
 -1.507 -1.507 -1.506 -1.506 -1.506 -1.505 -1.501 -1.496 -1.166 -1.092
 -0.861 -0.843]
e_fermi =  -1.4928095307670486
[2.    2.    2.    2.    2.    2.    2.    2.    1.905 1.886 1.883 1.879
 1.869 1.868 1.867 1.84  1.684 1.32 ]
entropy correction =  -0.02947526180805904
cycle= 31 E= -389.475770174819  delta_E= -1.33e-06  |g|= 0.00116  |ddm|= 0.00652
HOMO: -1.5011946557464726 LUMO: -1.4961398797018532
mo_energy:
[-5.433 -5.432 -3.986 -3.986 -3.984 -3.983 -3.962 -3.961 -1.508 -1.507
 -1.507 -1.507 -1.506 -1.506 -1.506 -1.505 -1.501 -1.496 -1.166 -1.092
 -0.861 -0.843]
e_fermi =  -1.4928237707648322
[2.    2.    2.    2.    2.    2.    2.    2.    1.905 1.886 1.883 1.879
 1.87  1.868 1.866 1.84  1.684 1.32 ]
entropy correction =  -0.029480483373051838
cycle= 32 E= -389.475770642011  delta_E= -4.67e-07  |g|= 0.000875  |ddm|= 0.00216
HOMO: -1.501190490828955 LUMO: -1.4961356419708167
mo_energy:
[-5.433 -5.432 -3.987 -3.986 -3.984 -3.983 -3.962 -3.961 -1.508 -1.507
 -1.507 -1.507 -1.506 -1.506 -1.506 -1.505 -1.501 -1.496 -1.166 -1.092
 -0.861 -0.843]
e_fermi =  -1.4928287778573501
[2.    2.    2.    2.    2.    2.    2.    2.    1.904 1.886 1.883 1.879
 1.87  1.868 1.866 1.84  1.684 1.319]
entropy correction =  -0.02946977739484411
cycle= 33 E= -389.475770878605  delta_E= -2.37e-07  |g|= 0.000183  |ddm|= 0.00175
HOMO: -1.501183355509635 LUMO: -1.4961284049956136
mo_energy:
[-5.433 -5.432 -3.986 -3.986 -3.984 -3.983 -3.962 -3.961 -1.508 -1.507
 -1.507 -1.507 -1.506 -1.506 -1.506 -1.505 -1.501 -1.496 -1.166 -1.092
 -0.861 -0.843]
e_fermi =  -1.492816624238716
[2.    2.    2.    2.    2.    2.    2.    2.    1.905 1.886 1.883 1.879
 1.87  1.868 1.866 1.84  1.684 1.32 ]
entropy correction =  -0.029475524844546915
cycle= 34 E= -389.475770966888  delta_E= -8.83e-08  |g|= 0.000139  |ddm|= 0.00114
HOMO: -1.5011868062180183 LUMO: -1.496131889494425
mo_energy:
[-5.433 -5.432 -3.986 -3.986 -3.984 -3.983 -3.962 -3.961 -1.508 -1.507
 -1.507 -1.507 -1.506 -1.506 -1.506 -1.505 -1.501 -1.496 -1.166 -1.092
 -0.861 -0.843]
e_fermi =  -1.4928193147719442
[2.    2.    2.    2.    2.    2.    2.    2.    1.905 1.886 1.883 1.879
 1.87  1.868 1.866 1.84  1.684 1.32 ]
entropy correction =  -0.029476398076989572
cycle= 35 E= -389.475770971466  delta_E= -4.58e-09  |g|= 0.000121  |ddm|= 0.000375
HOMO: -1.501188021424503 LUMO: -1.4961330940145292
mo_energy:
[-5.433 -5.432 -3.986 -3.986 -3.984 -3.983 -3.962 -3.961 -1.508 -1.507
 -1.507 -1.507 -1.506 -1.506 -1.506 -1.505 -1.501 -1.496 -1.166 -1.092
 -0.861 -0.843]
e_fermi =  -1.4928209588535797
[2.    2.    2.    2.    2.    2.    2.    2.    1.905 1.886 1.883 1.879
 1.87  1.868 1.867 1.84  1.684 1.32 ]
entropy correction =  -0.029475964133829004
cycle= 36 E= -389.475770978255  delta_E= -6.79e-09  |g|= 2.07e-05  |ddm|= 0.000288
HOMO: -1.501187975760196 LUMO: -1.4961330845590686
mo_energy:
[-5.433 -5.432 -3.986 -3.986 -3.984 -3.983 -3.962 -3.961 -1.508 -1.507
 -1.507 -1.507 -1.506 -1.506 -1.506 -1.505 -1.501 -1.496 -1.166 -1.092
 -0.861 -0.843]
e_fermi =  -1.492820455031472
[2.    2.    2.    2.    2.    2.    2.    2.    1.905 1.886 1.883 1.879
 1.87  1.868 1.866 1.84  1.684 1.32 ]
entropy correction =  -0.029476484170391802
cycle= 37 E= -389.475770979441  delta_E= -1.19e-09  |g|= 1.48e-05  |ddm|= 0.000149
HOMO: -1.5011874168835573 LUMO: -1.4961325162635184
mo_energy:
[-5.433 -5.432 -3.986 -3.986 -3.984 -3.983 -3.962 -3.961 -1.508 -1.507
 -1.507 -1.507 -1.506 -1.506 -1.506 -1.505 -1.501 -1.496 -1.166 -1.092
 -0.861 -0.843]
e_fermi =  -1.492820119769069
[2.    2.    2.    2.    2.    2.    2.    2.    1.905 1.886 1.883 1.879
 1.87  1.868 1.867 1.84  1.684 1.32 ]
entropy correction =  -0.02947622742337308
cycle= 38 E= -389.47577097956  delta_E= -1.19e-10  |g|= 5.73e-06  |ddm|= 3.17e-05
HOMO: -1.5011875609378451 LUMO: -1.4961326399382229
mo_energy:
[-5.433 -5.432 -3.986 -3.986 -3.984 -3.983 -3.962 -3.961 -1.508 -1.507
 -1.507 -1.507 -1.506 -1.506 -1.506 -1.505 -1.501 -1.496 -1.166 -1.092
 -0.861 -0.843]
e_fermi =  -1.492820126346049
[2.    2.    2.    2.    2.    2.    2.    2.    1.905 1.886 1.883 1.879
 1.87  1.868 1.867 1.84  1.684 1.32 ]
entropy correction =  -0.029476367211565952
Extra cycle  E= -389.475770728999  delta_E= 2.51e-07  |g|= 0.000788  |ddm|= 0.000371
converged SCF energy = -389.475770728999


******** <class 'pydmfet.dfet_ao.scf.EmbedSCF'> flags ********
method = EmbedSCF-RKS-RHF
initial guess = minao
damping factor = 0
level shift factor = 0
DIIS = <class 'pyscf.scf.diis.CDIIS'>
DIIS start cycle = 1
DIIS space = 8
SCF tol = 1e-09
SCF gradient tol = None
max. SCF cycles = 200
direct_scf = False
chkfile to save SCF result = /tmp/tmpy_vlq577
max_memory 16000 MB (current use 1035 MB)
XC functionals = pbe,pbe
small_rho_cutoff = 1e-07
radial grids: 
    Treutler-Ahlrichs (JCP 102, 346 (M4)) radial grids
    
becke partition: Becke, JCP, 88, 2547 (1988)
pruning grids: <function nwchem_prune at 0x2ab371397400>
grids dens level: 3
symmetrized grids: False
atomic radii adjust function: <function treutler_atomic_radii_adjust at 0x2ab371397378>
Set gradient conv threshold to 3.16228e-05
tot grids = 139880
init E= -79.4266925126351
HOMO: 0.14654207283589413 LUMO: 0.16668192320398284
mo_energy:
[-0.324 -0.311 -0.303 -0.296 -0.289 -0.269 -0.058 -0.04  -0.039 -0.032
 -0.004  0.005  0.006  0.024  0.03   0.051  0.052  0.058  0.058  0.066
  0.071  0.08   0.1    0.147  0.167  0.192  0.243  0.245  0.27 ]
e_fermi =  0.15659019588407203
[2.000e+00 2.000e+00 2.000e+00 2.000e+00 2.000e+00 2.000e+00 2.000e+00
 2.000e+00 2.000e+00 2.000e+00 2.000e+00 2.000e+00 2.000e+00 2.000e+00
 2.000e+00 2.000e+00 2.000e+00 2.000e+00 2.000e+00 2.000e+00 2.000e+00
 2.000e+00 2.000e+00 1.764e+00 2.346e-01 1.838e-03]
entropy correction =  -0.007323150747355671
cycle= 1 E= -86.4657310057588  delta_E= -7.04  |g|= 2.43  |ddm|= 10.2
HOMO: 0.7390127127211377 LUMO: 0.808523464320534
mo_energy:
[-0.103 -0.102 -0.094 -0.089  0.228  0.24   0.352  0.352  0.36   0.364
  0.366  0.367  0.368  0.37   0.417  0.424  0.428  0.468  0.674  0.68
  0.685  0.689  0.691  0.739  0.809  0.836  0.878  0.885  0.889]
e_fermi =  0.7737578350854525
[2.000e+00 2.000e+00 2.000e+00 2.000e+00 2.000e+00 2.000e+00 2.000e+00
 2.000e+00 2.000e+00 2.000e+00 2.000e+00 2.000e+00 2.000e+00 2.000e+00
 2.000e+00 2.000e+00 2.000e+00 2.000e+00 2.000e+00 2.000e+00 2.000e+00
 2.000e+00 2.000e+00 1.998e+00 1.909e-03]
entropy correction =  -0.00015271091926324562
cycle= 2 E= -87.230515460498  delta_E= -0.765  |g|= 1.89  |ddm|= 6.36
HOMO: 0.86768179949093 LUMO: 0.8766766155783433
mo_energy:
[0.245 0.248 0.256 0.259 0.428 0.441 0.656 0.657 0.657 0.662 0.677 0.677
 0.682 0.682 0.697 0.702 0.722 0.739 0.823 0.835 0.846 0.852 0.862 0.868
 0.877 0.878 0.883 0.896 0.943]
e_fermi =  0.8709186967444617
[2.    2.    2.    2.    2.    2.    2.    2.    2.    2.    2.    2.
 2.    2.    2.    2.    2.    2.    2.    1.998 1.987 1.954 1.704 1.313
 0.48  0.388 0.161 0.014]
entropy correction =  -0.025822123971337433
cycle= 3 E= -88.0972708566843  delta_E= -0.867  |g|= 0.609  |ddm|= 3.48
HOMO: 0.7999641302590323 LUMO: 0.8453017410230889
mo_energy:
[0.235 0.238 0.247 0.25  0.301 0.315 0.639 0.642 0.643 0.648 0.662 0.665
 0.666 0.666 0.673 0.676 0.678 0.689 0.71  0.716 0.724 0.734 0.736 0.8
 0.845 0.846 0.85  0.853 0.927]
e_fermi =  0.8203169824359862
[2.    2.    2.    2.    2.    2.    2.    2.    2.    2.    2.    2.
 2.    2.    2.    2.    2.    2.    2.    2.    2.    2.    2.    1.966
 0.013 0.012 0.005 0.003]
entropy correction =  -0.0019118553949923692
cycle= 4 E= -88.3565113115015  delta_E= -0.259  |g|= 0.286  |ddm|= 2.85
HOMO: 0.8222425755834685 LUMO: 0.8485264720597094
mo_energy:
[0.232 0.234 0.242 0.245 0.352 0.366 0.639 0.641 0.642 0.646 0.662 0.663
 0.665 0.666 0.674 0.679 0.698 0.699 0.748 0.76  0.768 0.773 0.778 0.822
 0.849 0.851 0.856 0.856 0.929]
e_fermi =  0.8334757758585212
[2.    2.    2.    2.    2.    2.    2.    2.    2.    2.    2.    2.
 2.    2.    2.    2.    2.    2.    2.    2.    2.    2.    2.    1.809
 0.094 0.055 0.022 0.02 ]
entropy correction =  -0.007483883875739304
cycle= 5 E= -88.3877947149049  delta_E= -0.0313  |g|= 0.0746  |ddm|= 0.31
HOMO: 0.8456015071039701 LUMO: 0.8559496990101956
mo_energy:
[0.246 0.248 0.256 0.26  0.377 0.391 0.653 0.655 0.656 0.66  0.676 0.677
 0.68  0.681 0.691 0.696 0.716 0.72  0.772 0.788 0.792 0.801 0.807 0.846
 0.856 0.859 0.862 0.867 0.935]
e_fermi =  0.848252829212816
[2.    2.    2.    2.    2.    2.    2.    2.    2.    2.    2.    2.
 2.    2.    2.    2.    2.    2.    2.    2.    2.    2.    1.999 1.259
 0.353 0.218 0.121 0.049]
entropy correction =  -0.01816981942628892
cycle= 6 E= -88.3866147440543  delta_E= 0.00118  |g|= 0.0861  |ddm|= 0.501
HOMO: 0.8314869701699382 LUMO: 0.849076591680006
mo_energy:
[0.236 0.238 0.246 0.25  0.364 0.378 0.644 0.645 0.646 0.65  0.667 0.667
 0.67  0.671 0.679 0.684 0.704 0.707 0.761 0.773 0.78  0.788 0.794 0.831
 0.849 0.854 0.857 0.86  0.93 ]
e_fermi =  0.8386129580712124
[2.    2.    2.    2.    2.    2.    2.    2.    2.    2.    2.    2.
 2.    2.    2.    2.    2.    2.    2.    2.    2.    2.    2.    1.612
 0.22  0.09  0.052 0.027]
entropy correction =  -0.012143931601857543
cycle= 7 E= -88.3919298041906  delta_E= -0.00532  |g|= 0.016  |ddm|= 0.331
HOMO: 0.8329559087063392 LUMO: 0.8491988345854177
mo_energy:
[0.237 0.239 0.247 0.251 0.365 0.379 0.645 0.646 0.647 0.652 0.668 0.668
 0.671 0.672 0.681 0.685 0.705 0.708 0.762 0.775 0.781 0.789 0.795 0.833
 0.849 0.854 0.857 0.86  0.931]
e_fermi =  0.8394266067014602
[2.    2.    2.    2.    2.    2.    2.    2.    2.    2.    2.    2.
 2.    2.    2.    2.    2.    2.    2.    2.    2.    2.    2.    1.57
 0.248 0.098 0.055 0.029]
entropy correction =  -0.012962965878561905
cycle= 8 E= -88.3921028770948  delta_E= -0.000173  |g|= 0.00699  |ddm|= 0.0411
HOMO: 0.8334674275086789 LUMO: 0.84923991956772
mo_energy:
[0.237 0.239 0.248 0.251 0.366 0.379 0.645 0.647 0.648 0.652 0.668 0.669
 0.671 0.672 0.681 0.686 0.706 0.709 0.762 0.775 0.782 0.789 0.796 0.833
 0.849 0.854 0.857 0.861 0.931]
e_fermi =  0.8397102484745513
[2.    2.    2.    2.    2.    2.    2.    2.    2.    2.    2.    2.
 2.    2.    2.    2.    2.    2.    2.    2.    2.    2.    2.    1.554
 0.259 0.101 0.056 0.03 ]
entropy correction =  -0.013246806441206101
cycle= 9 E= -88.3921350849615  delta_E= -3.22e-05  |g|= 0.000678  |ddm|= 0.0173
HOMO: 0.8334628484685438 LUMO: 0.8490383876967241
mo_energy:
[0.237 0.239 0.248 0.251 0.366 0.379 0.645 0.647 0.648 0.652 0.668 0.669
 0.671 0.672 0.681 0.686 0.706 0.709 0.762 0.775 0.782 0.789 0.796 0.833
 0.849 0.854 0.857 0.86  0.931]
e_fermi =  0.8396415106976798
[2.    2.    2.    2.    2.    2.    2.    2.    2.    2.    2.    2.
 2.    2.    2.    2.    2.    2.    2.    2.    2.    2.    2.    1.55
 0.265 0.099 0.056 0.031]
entropy correction =  -0.013308066929396725
cycle= 10 E= -88.3921357572787  delta_E= -6.72e-07  |g|= 0.000576  |ddm|= 0.00596
HOMO: 0.8334451092639376 LUMO: 0.8489836548195678
mo_energy:
[0.237 0.239 0.248 0.251 0.366 0.379 0.645 0.647 0.648 0.652 0.668 0.669
 0.671 0.672 0.681 0.686 0.706 0.709 0.762 0.775 0.782 0.789 0.796 0.833
 0.849 0.854 0.857 0.86  0.931]
e_fermi =  0.8396152029712057
[2.    2.    2.    2.    2.    2.    2.    2.    2.    2.    2.    2.
 2.    2.    2.    2.    2.    2.    2.    2.    2.    2.    2.    1.549
 0.266 0.099 0.056 0.031]
entropy correction =  -0.013312925542544603
cycle= 11 E= -88.3921357755921  delta_E= -1.83e-08  |g|= 0.000532  |ddm|= 0.00142
HOMO: 0.8333576722208984 LUMO: 0.8489326702680099
mo_energy:
[0.237 0.239 0.248 0.251 0.366 0.379 0.645 0.647 0.648 0.652 0.668 0.669
 0.671 0.672 0.681 0.686 0.705 0.709 0.762 0.775 0.782 0.789 0.796 0.833
 0.849 0.854 0.857 0.86  0.931]
e_fermi =  0.8395531282512658
[2.    2.    2.    2.    2.    2.    2.    2.    2.    2.    2.    2.
 2.    2.    2.    2.    2.    2.    2.    2.    2.    2.    2.    1.551
 0.266 0.098 0.055 0.03 ]
entropy correction =  -0.013276638923504436
cycle= 12 E= -88.3921359783483  delta_E= -2.03e-07  |g|= 4.18e-05  |ddm|= 0.00174
HOMO: 0.8333628911467198 LUMO: 0.8489362794140524
mo_energy:
[0.237 0.239 0.248 0.251 0.366 0.379 0.645 0.647 0.648 0.652 0.668 0.669
 0.671 0.672 0.681 0.686 0.705 0.709 0.762 0.775 0.782 0.789 0.796 0.833
 0.849 0.854 0.857 0.86  0.931]
e_fermi =  0.8395570881436706
[2.    2.    2.    2.    2.    2.    2.    2.    2.    2.    2.    2.
 2.    2.    2.    2.    2.    2.    2.    2.    2.    2.    2.    1.551
 0.266 0.098 0.055 0.03 ]
entropy correction =  -0.013278519195699803
cycle= 13 E= -88.3921359794943  delta_E= -1.15e-09  |g|= 7.64e-06  |ddm|= 0.000116
HOMO: 0.833362715111256 LUMO: 0.8489360840259914
mo_energy:
[0.237 0.239 0.248 0.251 0.366 0.379 0.645 0.647 0.648 0.652 0.668 0.669
 0.671 0.672 0.681 0.686 0.705 0.709 0.762 0.775 0.782 0.789 0.796 0.833
 0.849 0.854 0.857 0.86  0.931]
e_fermi =  0.8395569372818344
[2.    2.    2.    2.    2.    2.    2.    2.    2.    2.    2.    2.
 2.    2.    2.    2.    2.    2.    2.    2.    2.    2.    2.    1.551
 0.266 0.098 0.055 0.03 ]
entropy correction =  -0.013278466287687963
cycle= 14 E= -88.3921359795199  delta_E= -2.56e-11  |g|= 1.42e-06  |ddm|= 1.5e-05
HOMO: 0.8333627683254058 LUMO: 0.848935922087583
mo_energy:
[0.237 0.239 0.248 0.251 0.366 0.379 0.645 0.647 0.648 0.652 0.668 0.669
 0.671 0.672 0.681 0.686 0.705 0.709 0.762 0.775 0.782 0.789 0.796 0.833
 0.849 0.854 0.857 0.86  0.931]
e_fermi =  0.8395569244105874
[2.    2.    2.    2.    2.    2.    2.    2.    2.    2.    2.    2.
 2.    2.    2.    2.    2.    2.    2.    2.    2.    2.    2.    1.551
 0.266 0.098 0.055 0.03 ]
entropy correction =  -0.013278525075558871
Extra cycle  E= -88.3921359795151  delta_E= 4.8e-12  |g|= 3.6e-06  |ddm|= 1.12e-05
converged SCF energy = -88.3921359795151
|umat| =  0.6926631420072114
rks_ao.ne_frozen =  0
Set gradient conv threshold to 3.16228e-05
tot grids = 120648
init E= -388.112618662576
HOMO:  0.19124812168978625 LUMO:  0.20231953892512186
Fermi energy:       0.1967061270
[2.0000e+00 2.0000e+00 2.0000e+00 2.0000e+00 2.0000e+00 2.0000e+00
 2.0000e+00 2.0000e+00 2.0000e+00 2.0000e+00 2.0000e+00 2.0000e+00
 2.0000e+00 2.0000e+00 2.0000e+00 2.0000e+00 1.4974e+00 4.9103e-01
 9.9087e-03 1.5608e-03 1.3711e-04]
entropy correction =  -0.011594649894708584
cycle= 1 E= -325.108387087097  delta_E=   63  |g|=  9.9  |ddm|=  7.7
HOMO:  -8.597225821543024 LUMO:  -8.587036647418497
Fermi energy:      -8.5896522968
[2.     2.     2.     2.     2.     2.     2.     2.     1.9941 1.9917
 1.9827 1.9789 1.9637 1.9327 1.9119 1.8605 1.6395 0.7442]
entropy correction =  -0.019584767227396122
cycle= 2 E= -385.467108279213  delta_E= -60.4  |g|= 3.71  |ddm|= 7.84
HOMO:  -1.7808523646027261 LUMO:  -1.7763415169998427
Fermi energy:      -1.7764979689
[2.     2.     2.     2.     2.     2.     2.     2.     2.     2.
 2.     2.     2.     1.9821 1.8349 1.7888 1.4099 0.9844]
entropy correction =  -0.019729516037588803
cycle= 3 E= -388.487324474617  delta_E= -3.02  |g|= 1.59  |ddm|= 3.64
HOMO:  -0.951740094632259 LUMO:  -0.9472719036914757
Fermi energy:      -0.9494747613
[2.0000e+00 2.0000e+00 2.0000e+00 2.0000e+00 2.0000e+00 2.0000e+00
 2.0000e+00 2.0000e+00 2.0000e+00 2.0000e+00 2.0000e+00 2.0000e+00
 2.0000e+00 2.0000e+00 2.0000e+00 1.9924e+00 1.2227e+00 7.8321e-01
 1.0731e-03 3.0570e-04 2.5369e-04]
entropy correction =  -0.013700880362151637
cycle= 4 E= -352.202958903197  delta_E= 36.3  |g|= 13.2  |ddm|= 5.37
HOMO:  -1.254559402807483 LUMO:  -1.2474921705243087
Fermi energy:      -1.2489792843
[2.     2.     2.     2.     2.     2.     2.     2.     2.     2.
 2.     2.     2.     2.     1.8526 1.6333 1.5065 0.8524 0.1554]
entropy correction =  -0.022538417009224203
cycle= 5 E= -382.460628219443  delta_E= -30.3  |g|= 4.87  |ddm|=  3.6
HOMO:  -1.527506438566898 LUMO:  -1.5251338855859378
Fermi energy:      -1.5220736119
[2.     2.     2.     2.     2.     2.     2.     2.     2.     2.
 2.     2.     2.     1.9266 1.6786 1.6025 1.4955 1.2968]
entropy correction =  -0.02310014414557816
cycle= 6 E= -388.425131084546  delta_E= -5.96  |g|= 1.73  |ddm|= 2.53
HOMO:  -1.4632495573318198 LUMO:  -1.455068302474233
Fermi energy:      -1.4591280598
[2.     2.     2.     2.     2.     2.     2.     2.     2.     2.
 2.     2.     2.     1.9997 1.9991 1.996  1.3903 0.6149]
entropy correction =  -0.012520238049749097
cycle= 7 E= -388.550989575344  delta_E= -0.126  |g|= 1.52  |ddm|= 1.22
HOMO:  -1.5001173172952285 LUMO:  -1.496057482327772
Fermi energy:      -1.4931446803
[2.     2.     2.     2.     2.     2.     2.     2.     2.     2.
 1.9999 1.9346 1.8672 1.8165 1.8092 1.6866 1.6026 1.2833]
entropy correction =  -0.02595178517372265
cycle= 8 E= -389.042648523269  delta_E= -0.492  |g|= 1.05  |ddm|= 0.924
HOMO:  -1.4991737587901324 LUMO:  -1.4901616271461862
Fermi energy:      -1.4918159080
[2.     2.     2.     2.     2.     2.     2.     2.     2.     2.
 1.9995 1.9837 1.9726 1.9632 1.8993 1.7192 1.6266 0.8361]
entropy correction =  -0.01980578006929022
cycle= 9 E= -389.181114224627  delta_E= -0.138  |g|= 0.842  |ddm|= 0.641
HOMO:  -1.4852958090526331 LUMO:  -1.4830731835362816
Fermi energy:      -1.4804051501
[2.     2.     2.     2.     2.     2.     2.     2.     2.     2.
 1.9999 1.9941 1.9809 1.9103 1.8968 1.5038 1.4535 1.2606]
entropy correction =  -0.022660926248068366
cycle= 10 E= -388.666615843634  delta_E= 0.514  |g|= 1.42  |ddm|= 0.786
HOMO:  -1.452648834996772 LUMO:  -1.4451548391730382
Fermi energy:      -1.4488314974
[2.     2.     2.     2.     2.     2.     2.     2.     2.     2.
 2.     1.9999 1.9999 1.9995 1.9991 1.9892 1.3642 0.6481]
entropy correction =  -0.012954491333368668
cycle= 11 E= -388.587295011972  delta_E= 0.0793  |g|= 1.47  |ddm|= 1.61
HOMO:  -1.500691919737941 LUMO:  -1.4971845401294583
Fermi energy:      -1.4939461738
[2.     2.     2.     2.     2.     2.     2.     2.     1.9995 1.9963
 1.9912 1.9902 1.9303 1.8185 1.7388 1.6343 1.588  1.313 ]
entropy correction =  -0.025460619252779183
cycle= 12 E= -389.437425817584  delta_E= -0.85  |g|= 0.151  |ddm|= 1.57
HOMO:  -1.4777741788866494 LUMO:  -1.4688050726282071
Fermi energy:      -1.4711583519
[2.     2.     2.     2.     2.     2.     2.     2.     1.9999 1.9999
 1.9999 1.9996 1.9982 1.9873 1.8647 1.8021 1.5794 0.7689]
entropy correction =  -0.017998818843943255
cycle= 13 E= -389.142905202598  delta_E= 0.295  |g|= 0.868  |ddm|= 1.38
HOMO:  -1.5013174904604958 LUMO:  -1.4929099519078604
Fermi energy:      -1.4922119677
[2.     2.     2.     2.     2.     2.     2.     2.     1.9725 1.9703
 1.9428 1.9349 1.9017 1.8814 1.8589 1.7464 1.7214 1.0697]
entropy correction =  -0.025739103408517053
cycle= 14 E= -389.341743429375  delta_E= -0.199  |g|= 0.558  |ddm|= 0.39
HOMO:  -1.495475439575692 LUMO:  -1.4927001006584275
Fermi energy:      -1.4886439103
[2.     2.     2.     2.     2.     2.     2.     2.     1.9809 1.9572
 1.9554 1.9081 1.8944 1.8684 1.8419 1.6153 1.5936 1.3847]
entropy correction =  -0.02787916511643441
cycle= 15 E= -389.377765914062  delta_E= -0.036  |g|= 0.436  |ddm|= 0.804
HOMO:  -1.497737025270113 LUMO:  -1.4929949273764667
Fermi energy:      -1.4891859314
[2.     2.     2.     2.     2.     2.     2.     2.     1.9805 1.9792
 1.8949 1.8689 1.8607 1.8347 1.7921 1.7316 1.6937 1.3635]
entropy correction =  -0.028798992005272882
cycle= 16 E= -389.471244604072  delta_E= -0.0935  |g|= 0.0585  |ddm|= 0.692
HOMO:  -1.497210882351555 LUMO:  -1.4920201512621853
Fermi energy:      -1.4902082431
[2.     2.     2.     2.     2.     2.     2.     2.     1.9552 1.952
 1.92   1.9134 1.9088 1.8871 1.8648 1.8148 1.6045 1.1792]
entropy correction =  -0.02699070589971132
cycle= 17 E= -389.463636603783  delta_E= 0.00761  |g|= 0.155  |ddm|= 0.358
HOMO:  -1.5031752424689786 LUMO:  -1.497066446611243
Fermi energy:      -1.4936943520
[2.     2.     2.     2.     2.     2.     2.     2.     1.941  1.9347
 1.8931 1.8842 1.8538 1.8302 1.8182 1.7809 1.7389 1.325 ]
entropy correction =  -0.029356896124913864
cycle= 18 E= -389.403227336754  delta_E= 0.0604  |g|= 0.422  |ddm|= 0.267
HOMO:  -1.5024546706922004 LUMO:  -1.4968841737693754
Fermi energy:      -1.4937524185
[2.     2.     2.     2.     2.     2.     2.     2.     1.9297 1.9234
 1.912  1.9079 1.8568 1.8463 1.823  1.796  1.7015 1.3033]
entropy correction =  -0.029068689468325186
cycle= 19 E= -389.422205391605  delta_E= -0.019  |g|= 0.363  |ddm|= 0.0736
HOMO:  -1.5022242891648223 LUMO:  -1.4963349369752543
Fermi energy:      -1.4937370010
[2.     2.     2.     2.     2.     2.     2.     2.     1.9405 1.9322
 1.9185 1.9121 1.8731 1.8576 1.8197 1.802  1.6904 1.2541]
entropy correction =  -0.028431361428762587
cycle= 20 E= -389.408617122315  delta_E= 0.0136  |g|= 0.406  |ddm|= 0.0731
HOMO:  -1.5023093248557746 LUMO:  -1.4963951416887449
Fermi energy:      -1.4940223094
[2.     2.     2.     2.     2.     2.     2.     2.     1.9524 1.9515
 1.9446 1.9114 1.8863 1.8711 1.7967 1.7733 1.6798 1.2329]
entropy correction =  -0.02779677055982071
cycle= 21 E= -389.384998232295  delta_E= 0.0236  |g|= 0.471  |ddm|= 0.0613
HOMO:  -1.502379867327128 LUMO:  -1.496072313387965
Fermi energy:      -1.4939557798
[2.     2.     2.     2.     2.     2.     2.     2.     1.9582 1.9575
 1.9496 1.9153 1.8847 1.8674 1.8    1.7716 1.6871 1.2085]
entropy correction =  -0.02746954564660034
cycle= 22 E= -389.360927716067  delta_E= 0.0241  |g|= 0.53  |ddm|= 0.0397
HOMO:  -1.5010912856222154 LUMO:  -1.495947693142369
Fermi energy:      -1.4936411637
[2.     2.     2.     2.     2.     2.     2.     2.     1.9406 1.9383
 1.9265 1.8881 1.8843 1.865  1.8612 1.8372 1.6322 1.2266]
entropy correction =  -0.027914819410855735
cycle= 23 E= -389.456439832307  delta_E= -0.0955  |g|= 0.213  |ddm|= 0.169
HOMO:  -1.5017160902352322 LUMO:  -1.497849365272503
Fermi energy:      -1.4928014023
[2.     2.     2.     2.     2.     2.     2.     2.     1.9426 1.9205
 1.9033 1.8741 1.8113 1.8015 1.7951 1.7734 1.7121 1.4659]
entropy correction =  -0.030378035548082095
cycle= 24 E= -389.471240902187  delta_E= -0.0148  |g|= 0.035  |ddm|= 0.375
HOMO:  -1.4999275569596418 LUMO:  -1.4948277992492245
Fermi energy:      -1.4917320011
[2.     2.     2.     2.     2.     2.     2.     2.     1.9141 1.9118
 1.8986 1.8919 1.8641 1.8537 1.85   1.8409 1.6748 1.3001]
entropy correction =  -0.0291421840988449
cycle= 25 E= -389.473351094107  delta_E= -0.00211  |g|= 0.073  |ddm|= 0.288
HOMO:  -1.5012685909546497 LUMO:  -1.4962087666392163
Fermi energy:      -1.4928862727
[2.     2.     2.     2.     2.     2.     2.     2.     1.9114 1.8991
 1.8864 1.8847 1.8706 1.8578 1.8536 1.8311 1.6849 1.3205]
entropy correction =  -0.02943886747196311
cycle= 26 E= -389.475411013192  delta_E= -0.00206  |g|= 0.019  |ddm|= 0.0799
HOMO:  -1.5009641020838156 LUMO:  -1.4958657139351204
Fermi energy:      -1.4927468155
[2.     2.     2.     2.     2.     2.     2.     2.     1.9032 1.8923
 1.8882 1.8842 1.8767 1.8668 1.8638 1.8466 1.676  1.3022]
entropy correction =  -0.02925416807543245
cycle= 27 E= -389.474328780375  delta_E= 0.00108  |g|= 0.0582  |ddm|= 0.0858
HOMO:  -1.5014505396195075 LUMO:  -1.4963970090665426
Fermi energy:      -1.4928957031
[2.     2.     2.     2.     2.     2.     2.     2.     1.9084 1.8821
 1.8803 1.8739 1.8697 1.8637 1.8611 1.8303 1.6939 1.3365]
entropy correction =  -0.029675058127743525
cycle= 28 E= -389.475436862627  delta_E= -0.00111  |g|= 0.0258  |ddm|= 0.0708
HOMO:  -1.5011806760576745 LUMO:  -1.4961242157292336
Fermi energy:      -1.4927803277
[2.     2.     2.     2.     2.     2.     2.     2.     1.9055 1.8868
 1.882  1.8776 1.8711 1.866  1.8645 1.8382 1.6858 1.3225]
entropy correction =  -0.029509074993267347
cycle= 29 E= -389.475765076437  delta_E= -0.000328  |g|= 0.00135  |ddm|= 0.0367
HOMO:  -1.5011697772319312 LUMO:  -1.496114036445349
Fermi energy:      -1.4927931540
[2.     2.     2.     2.     2.     2.     2.     2.     1.9046 1.8859
 1.8824 1.8784 1.8693 1.8681 1.8665 1.8397 1.6846 1.3204]
entropy correction =  -0.02948618352049876
cycle= 30 E= -389.475768843664  delta_E= -3.77e-06  |g|= 0.00101  |ddm|= 0.0101
HOMO:  -1.5011754846041807 LUMO:  -1.4961209504270714
Fermi energy:      -1.4928095309
[2.     2.     2.     2.     2.     2.     2.     2.     1.9046 1.8859
 1.8827 1.8789 1.8695 1.8679 1.8667 1.8403 1.684  1.3195]
entropy correction =  -0.029475261685190705
cycle= 31 E= -389.475770174838  delta_E= -1.33e-06  |g|= 0.00116  |ddm|= 0.00652
HOMO:  -1.5011946556684888 LUMO:  -1.4961398796243457
Fermi energy:      -1.4928237707
[2.     2.     2.     2.     2.     2.     2.     2.     1.9047 1.8857
 1.8828 1.8787 1.8696 1.8678 1.8665 1.84   1.6843 1.32  ]
entropy correction =  -0.029480483339837306
cycle= 32 E= -389.475770642011  delta_E= -4.67e-07  |g|= 0.000875  |ddm|= 0.00216
HOMO:  -1.5011904908819733 LUMO:  -1.496135642022108
Fermi energy:      -1.4928287778
[2.     2.     2.     2.     2.     2.     2.     2.     1.9045 1.8863
 1.8832 1.8788 1.8696 1.8677 1.8665 1.8405 1.6838 1.3191]
entropy correction =  -0.029469777513997774
cycle= 33 E= -389.475770878606  delta_E= -2.37e-07  |g|= 0.000183  |ddm|= 0.00175
HOMO:  -1.5011833555242702 LUMO:  -1.4961284050099772
Fermi energy:      -1.4928166243
[2.     2.     2.     2.     2.     2.     2.     2.     1.9046 1.886
 1.883  1.8788 1.8695 1.8678 1.8665 1.8402 1.684  1.3196]
entropy correction =  -0.029475524844435778
cycle= 34 E= -389.475770966887  delta_E= -8.83e-08  |g|= 0.000139  |ddm|= 0.00114
HOMO:  -1.5011868061696985 LUMO:  -1.4961318894465676
Fermi energy:      -1.4928193148
[2.     2.     2.     2.     2.     2.     2.     2.     1.9046 1.886
 1.883  1.8787 1.8696 1.8677 1.8665 1.8402 1.6841 1.3197]
entropy correction =  -0.02947639804676375
cycle= 35 E= -389.475770971467  delta_E= -4.58e-09  |g|= 0.000121  |ddm|= 0.000375
HOMO:  -1.501188021442801 LUMO:  -1.4961330940335045
Fermi energy:      -1.4928209589
[2.     2.     2.     2.     2.     2.     2.     2.     1.9046 1.8859
 1.8829 1.8788 1.8695 1.8678 1.8665 1.8402 1.6841 1.3196]
entropy correction =  -0.029475964142411836
cycle= 36 E= -389.475770978256  delta_E= -6.79e-09  |g|= 2.07e-05  |ddm|= 0.000288
HOMO:  -1.5011879757783628 LUMO:  -1.4961330845780536
Fermi energy:      -1.4928204550
[2.     2.     2.     2.     2.     2.     2.     2.     1.9046 1.8859
 1.8829 1.8788 1.8696 1.8678 1.8665 1.8402 1.6841 1.3197]
entropy correction =  -0.029476484180764956
cycle= 37 E= -389.475770979441  delta_E= -1.18e-09  |g|= 1.48e-05  |ddm|= 0.000149
HOMO:  -1.5011874168855182 LUMO:  -1.4961325162655097
Fermi energy:      -1.4928201198
[2.     2.     2.     2.     2.     2.     2.     2.     1.9046 1.886
 1.8829 1.8788 1.8696 1.8678 1.8665 1.8402 1.6841 1.3196]
entropy correction =  -0.029476227422705073
cycle= 38 E= -389.475770979561  delta_E= -1.2e-10  |g|= 5.73e-06  |ddm|= 3.17e-05
HOMO:  -1.5011875609383807 LUMO:  -1.4961326399373882
Fermi energy:      -1.4928201263
[2.     2.     2.     2.     2.     2.     2.     2.     1.9046 1.8859
 1.8829 1.8788 1.8696 1.8678 1.8665 1.8402 1.6841 1.3196]
entropy correction =  -0.029476367213607944
Extra cycle  E= -389.475770728974  delta_E= 2.51e-07  |g|= 0.000788  |ddm|= 0.000371
entropy correction =  -0.029476367213607944
rks_ao.ne_frozen =  0
Set gradient conv threshold to 3.16228e-05
tot grids = 139880
init E= -79.4266925126351
HOMO:  0.14654207283589368 LUMO:  0.166681923203982
Fermi energy:       0.1565901959
[2.0000e+00 2.0000e+00 2.0000e+00 2.0000e+00 2.0000e+00 2.0000e+00
 2.0000e+00 2.0000e+00 2.0000e+00 2.0000e+00 2.0000e+00 2.0000e+00
 2.0000e+00 2.0000e+00 2.0000e+00 2.0000e+00 2.0000e+00 2.0000e+00
 2.0000e+00 2.0000e+00 2.0000e+00 2.0000e+00 2.0000e+00 1.7636e+00
 2.3458e-01 1.8381e-03]
entropy correction =  -0.007323150747355823
cycle= 1 E= -86.4657310057584  delta_E= -7.04  |g|= 2.43  |ddm|= 10.2
HOMO:  0.7390127127211379 LUMO:  0.8085234643205329
Fermi energy:       0.7737578351
[2.0000e+00 2.0000e+00 2.0000e+00 2.0000e+00 2.0000e+00 2.0000e+00
 2.0000e+00 2.0000e+00 2.0000e+00 2.0000e+00 2.0000e+00 2.0000e+00
 2.0000e+00 2.0000e+00 2.0000e+00 2.0000e+00 2.0000e+00 2.0000e+00
 2.0000e+00 2.0000e+00 2.0000e+00 2.0000e+00 2.0000e+00 1.9981e+00
 1.9095e-03]
entropy correction =  -0.0001527109192632629
cycle= 2 E= -87.230515460498  delta_E= -0.765  |g|= 1.89  |ddm|= 6.36
HOMO:  0.8676817994909268 LUMO:  0.8766766155783403
Fermi energy:       0.8709186967
[2.     2.     2.     2.     2.     2.     2.     2.     2.     2.
 2.     2.     2.     2.     2.     2.     2.     2.     1.9999 1.9984
 1.9875 1.9542 1.704  1.3128 0.4804 0.3879 0.1606 0.0143]
entropy correction =  -0.025822123971338345
cycle= 3 E= -88.0972708566841  delta_E= -0.867  |g|= 0.609  |ddm|= 3.48
HOMO:  0.7999641302590348 LUMO:  0.8453017410230907
Fermi energy:       0.8203169824
[2.     2.     2.     2.     2.     2.     2.     2.     2.     2.
 2.     2.     2.     2.     2.     2.     2.     2.     2.     2.
 2.     2.     2.     1.9664 0.0134 0.0121 0.0054 0.0027]
entropy correction =  -0.0019118553949926667
cycle= 4 E= -88.3565113115015  delta_E= -0.259  |g|= 0.286  |ddm|= 2.85
HOMO:  0.8222425755834688 LUMO:  0.8485264720596999
Fermi energy:       0.8334757759
[2.     2.     2.     2.     2.     2.     2.     2.     2.     2.
 2.     2.     2.     2.     2.     2.     2.     2.     2.     2.
 2.     2.     2.     1.8087 0.0939 0.0553 0.0219 0.0202]
entropy correction =  -0.0074838838757433955
cycle= 5 E= -88.3877947149044  delta_E= -0.0313  |g|= 0.0746  |ddm|= 0.31
HOMO:  0.8456015071039699 LUMO:  0.8559496990101937
Fermi energy:       0.8482528292
[2.     2.     2.     2.     2.     2.     2.     2.     2.     2.
 2.     2.     2.     2.     2.     2.     2.     2.     2.     2.
 2.     1.9998 1.9995 1.2591 0.3533 0.2185 0.1212 0.0487]
entropy correction =  -0.0181698194262893
cycle= 6 E= -88.3866147440546  delta_E= 0.00118  |g|= 0.0861  |ddm|= 0.501
HOMO:  0.8314869701699362 LUMO:  0.8490765916800038
Fermi energy:       0.8386129581
[2.     2.     2.     2.     2.     2.     2.     2.     2.     2.
 2.     2.     2.     2.     2.     2.     2.     2.     2.     2.
 2.     1.9999 1.9997 1.6123 0.2196 0.0899 0.0519 0.0267]
entropy correction =  -0.012143931601856253
cycle= 7 E= -88.3919298041907  delta_E= -0.00532  |g|= 0.016  |ddm|= 0.331
HOMO:  0.8329559087063427 LUMO:  0.8491988345854152
Fermi energy:       0.8394266067
[2.     2.     2.     2.     2.     2.     2.     2.     2.     2.
 2.     2.     2.     2.     2.     2.     2.     2.     2.     2.
 2.     1.9999 1.9997 1.5697 0.2481 0.0977 0.0554 0.0295]
entropy correction =  -0.012962965878565642
cycle= 8 E= -88.3921028770947  delta_E= -0.000173  |g|= 0.00699  |ddm|= 0.0411
HOMO:  0.8334674275086755 LUMO:  0.8492399195677156
Fermi energy:       0.8397102485
[2.     2.     2.     2.     2.     2.     2.     2.     2.     2.
 2.     2.     2.     2.     2.     2.     2.     2.     2.     2.
 2.     1.9999 1.9997 1.5541 0.2589 0.1005 0.0565 0.0304]
entropy correction =  -0.013246806441206403
cycle= 9 E= -88.3921350849613  delta_E= -3.22e-05  |g|= 0.000678  |ddm|= 0.0173
HOMO:  0.8334628484685406 LUMO:  0.8490383876967202
Fermi energy:       0.8396415107
[2.     2.     2.     2.     2.     2.     2.     2.     2.     2.
 2.     2.     2.     2.     2.     2.     2.     2.     2.     2.
 2.     1.9999 1.9997 1.5496 0.2649 0.0993 0.056  0.0306]
entropy correction =  -0.013308066929397634
cycle= 10 E= -88.3921357572785  delta_E= -6.72e-07  |g|= 0.000576  |ddm|= 0.00596
HOMO:  0.8334451092639382 LUMO:  0.8489836548195677
Fermi energy:       0.8396152030
[2.     2.     2.     2.     2.     2.     2.     2.     2.     2.
 2.     2.     2.     2.     2.     2.     2.     2.     2.     2.
 2.     1.9999 1.9997 1.549  0.2662 0.0988 0.0558 0.0305]
entropy correction =  -0.013312925542545845
cycle= 11 E= -88.3921357755923  delta_E= -1.83e-08  |g|= 0.000532  |ddm|= 0.00142
HOMO:  0.8333576722208932 LUMO:  0.8489326702680087
Fermi energy:       0.8395531283
[2.     2.     2.     2.     2.     2.     2.     2.     2.     2.
 2.     2.     2.     2.     2.     2.     2.     2.     2.     2.
 2.     1.9999 1.9997 1.5508 0.2657 0.0981 0.0554 0.0304]
entropy correction =  -0.01327663892350345
cycle= 12 E= -88.3921359783483  delta_E= -2.03e-07  |g|= 4.18e-05  |ddm|= 0.00174
HOMO:  0.8333628911467145 LUMO:  0.8489362794140479
Fermi energy:       0.8395570881
[2.     2.     2.     2.     2.     2.     2.     2.     2.     2.
 2.     2.     2.     2.     2.     2.     2.     2.     2.     2.
 2.     1.9999 1.9997 1.5507 0.2657 0.0981 0.0554 0.0304]
entropy correction =  -0.013278519195698807
cycle= 13 E= -88.3921359794945  delta_E= -1.15e-09  |g|= 7.64e-06  |ddm|= 0.000116
HOMO:  0.833362715111253 LUMO:  0.8489360840259895
Fermi energy:       0.8395569373
[2.     2.     2.     2.     2.     2.     2.     2.     2.     2.
 2.     2.     2.     2.     2.     2.     2.     2.     2.     2.
 2.     1.9999 1.9997 1.5507 0.2657 0.0981 0.0554 0.0304]
entropy correction =  -0.013278466287687125
cycle= 14 E= -88.3921359795203  delta_E= -2.58e-11  |g|= 1.42e-06  |ddm|= 1.5e-05
HOMO:  0.8333627683254146 LUMO:  0.8489359220875865
Fermi energy:       0.8395569244
[2.     2.     2.     2.     2.     2.     2.     2.     2.     2.
 2.     2.     2.     2.     2.     2.     2.     2.     2.     2.
 2.     1.9999 1.9997 1.5507 0.2657 0.0981 0.0554 0.0304]
entropy correction =  -0.013278525075561301
Extra cycle  E= -88.3921359795151  delta_E= 5.2e-12  |g|= 3.6e-06  |ddm|= 1.12e-05
degenerate subspace detected:
nsub = 2
subspace 1:
13, 14, 15, 
subspace 2:


 Adding contributions from fluctuation of occupation numbers.
 Adding contributions from fluctuation of occupation numbers.
entropy correction =  -0.013278525075561301
2-norm (grad),       max(grad):
0.8080123349222654 ,  0.09862061877429151
time of hessian construction : 26.070  (cpu),  0.704  (wall) 
time of hessian construction : 25.960  (cpu),  0.651  (wall) 
f =  0.32644196669326564
|umat| =  1.5827830951779926
rks_ao.ne_frozen =  0
Set gradient conv threshold to 3.16228e-05
tot grids = 120648
init E= -387.772446813763
HOMO:  0.054516971069745616 LUMO:  0.08067913024217639
Fermi energy:       0.0672459228
[2.0000e+00 2.0000e+00 2.0000e+00 2.0000e+00 2.0000e+00 2.0000e+00
 2.0000e+00 2.0000e+00 2.0000e+00 2.0000e+00 2.0000e+00 2.0000e+00
 2.0000e+00 2.0000e+00 1.9999e+00 1.9996e+00 1.8546e+00 1.2753e-01
 1.7434e-02 1.0219e-03]
entropy correction =  -0.005550732987164338
cycle= 1 E= -326.119159667366  delta_E= 61.7  |g|= 8.67  |ddm|= 23.3
HOMO:  -8.724633968643953 LUMO:  -8.53609784517904
Fermi energy:      -8.6303444200
[2. 2. 2. 2. 2. 2. 2. 2. 2. 2. 2. 2. 2. 2. 2. 2. 2.]
entropy correction =  0.0
cycle= 2 E= -385.819293604954  delta_E= -59.7  |g|= 4.13  |ddm|= 23.3
HOMO:  -1.6323969249764327 LUMO:  -1.5982939844546826
Fermi energy:      -1.6153144204
[2.     2.     2.     2.     2.     2.     2.     2.     2.     2.
 2.     2.     2.     2.     2.     1.9992 1.9364 0.0643]
entropy correction =  -0.002864945647721223
cycle= 3 E= -386.436670241755  delta_E= -0.617  |g|=  4.4  |ddm|=   13
HOMO:  -1.3636600123705211 LUMO:  -1.3111011403291082
Fermi energy:      -1.3373860093
[2.     2.     2.     2.     2.     2.     2.     2.     2.     2.
 2.     2.     2.     2.     2.     2.     1.9896 0.0104]
entropy correction =  -0.0006511713167316741
cycle= 4 E= -379.089073761635  delta_E= 7.35  |g|= 7.53  |ddm|= 5.74
HOMO:  -1.684894224494302 LUMO:  -1.664072692816254
Fermi energy:      -1.6744826622
[2.     2.     2.     2.     2.     2.     2.     2.     2.     2.
 2.     2.     2.     2.     2.     1.9999 1.7783 0.2217]
entropy correction =  -0.00696907878800499
cycle= 5 E= -387.823446741804  delta_E= -8.73  |g|= 3.19  |ddm|= 4.21
HOMO:  -1.8655739522436474 LUMO:  -1.8057405732204261
Fermi energy:      -1.8355519181
[2.     2.     2.     2.     2.     2.     2.     2.     2.     2.
 2.     2.     2.     2.     1.9999 1.9999 1.9951 0.0051]
entropy correction =  -0.00036271319768682554
cycle= 6 E= -390.517197517012  delta_E= -2.69  |g|= 0.494  |ddm|= 7.16
HOMO:  -1.7363295510681265 LUMO:  -1.7191753032000427
Fermi energy:      -1.7272416637
[2.     2.     2.     2.     2.     2.     2.     2.     2.     2.
 2.     2.     2.     2.     2.     1.9472 1.7206 0.3323]
entropy correction =  -0.009763425629894223
cycle= 7 E= -389.740683420952  delta_E= 0.777  |g|= 1.57  |ddm|= 7.95
HOMO:  -1.7499322041548566 LUMO:  -1.7341474784118718
Fermi energy:      -1.7416059033
[2.     2.     2.     2.     2.     2.     2.     2.     2.     2.
 2.     2.     2.     2.     2.     1.9508 1.6819 0.3673]
entropy correction =  -0.010306795066393135
cycle= 8 E= -389.686832630193  delta_E= 0.0539  |g|= 1.61  |ddm|= 0.21
HOMO:  -1.750110109671106 LUMO:  -1.7373940419054332
Fermi energy:      -1.7433907197
[2.     2.     2.     2.     2.     2.     2.     2.     2.     2.
 2.     2.     2.     2.     1.9999 1.9506 1.5863 0.4632]
entropy correction =  -0.011671266335717023
cycle= 9 E= -389.87640636453  delta_E= -0.19  |g|= 1.97  |ddm|= 0.405
HOMO:  -1.7482184049270009 LUMO:  -1.7387351782447789
Fermi energy:      -1.7431020131
[2.     2.     2.     2.     2.     2.     2.     2.     2.     2.
 2.     2.     2.     2.     1.9999 1.9398 1.4712 0.5891]
entropy correction =  -0.013194934704409468
cycle= 10 E= -390.109675754216  delta_E= -0.233  |g|= 1.61  |ddm|= 0.511
HOMO:  -1.778386606171177 LUMO:  -1.7651187191288134
Fermi energy:      -1.7715569203
[2.     2.     2.     2.     2.     2.     2.     2.     2.     2.
 2.     2.     2.     2.     1.9998 1.9743 1.5934 0.4325]
entropy correction =  -0.010969666060462013
cycle= 11 E= -390.477451198122  delta_E= -0.368  |g|= 0.825  |ddm|= 2.13
HOMO:  -1.7797613606707547 LUMO:  -1.7723042427004225
Fermi energy:      -1.7758098276
[2.     2.     2.     2.     2.     2.     2.     2.     2.     2.
 2.     2.     2.     2.     1.9999 1.9612 1.3758 0.6631]
entropy correction =  -0.013524823244545901
cycle= 12 E= -390.408225530231  delta_E= 0.0692  |g|= 1.03  |ddm|= 0.474
HOMO:  -1.7759026252064938 LUMO:  -1.771868052096463
Fermi energy:      -1.7736223167
[2.     2.     2.     2.     2.     2.     2.     2.     2.     2.
[...]
 1.9464 1.9241 1.84   1.7967 1.7625 1.7492 1.7383 1.2958]
entropy correction =  -0.028117882802543927
cycle= 30 E= -389.307148698954  delta_E= -0.0647  |g|= 0.76  |ddm|= 0.0537
HOMO:  -1.6174738083502782 LUMO:  -1.6088666088075567
Fermi energy:      -1.6084457004
[2.     2.     2.     2.     2.     2.     2.     2.     1.9623 1.9546
 1.9496 1.9351 1.9079 1.8822 1.8754 1.7731 1.7177 1.0421]
entropy correction =  -0.025594705135782454
cycle= 31 E= -389.277484413237  delta_E= 0.0297  |g|= 0.805  |ddm|= 0.342
HOMO:  -1.6178881077326002 LUMO:  -1.6113953928991755
Fermi energy:      -1.6092565126
[2.     2.     2.     2.     2.     2.     2.     2.     1.943  1.936
 1.9095 1.8928 1.8774 1.8693 1.8596 1.8038 1.6979 1.2107]
entropy correction =  -0.028066637374208683
cycle= 32 E= -389.433023105507  delta_E= -0.156  |g|= 0.482  |ddm|= 0.215
HOMO:  -1.618367136156487 LUMO:  -1.613713399528384
Fermi energy:      -1.6097455880
[2.     2.     2.     2.     2.     2.     2.     2.     1.9263 1.8876
 1.878  1.8725 1.87   1.8677 1.8169 1.8064 1.6974 1.3772]
entropy correction =  -0.029943999513838748
cycle= 33 E= -389.516625024178  delta_E= -0.0836  |g|= 0.0729  |ddm|= 0.23
HOMO:  -1.6165360265467204 LUMO:  -1.612323086339581
Fermi energy:      -1.6091799632
[2.     2.     2.     2.     2.     2.     2.     2.     1.9223 1.9123
 1.9042 1.8824 1.8712 1.8617 1.8592 1.8559 1.6265 1.3044]
entropy correction =  -0.02891769596660029
cycle= 34 E= -389.518047854482  delta_E= -0.00142  |g|= 0.0584  |ddm|= 0.203
HOMO:  -1.6179226333926229 LUMO:  -1.6131270381996168
Fermi energy:      -1.6102666645
[2.     2.     2.     2.     2.     2.     2.     2.     1.9115 1.9026
 1.8975 1.8898 1.8868 1.8817 1.8695 1.8377 1.6444 1.2785]
entropy correction =  -0.028780619728782434
cycle= 35 E= -389.509446953428  delta_E= 0.0086  |g|= 0.161  |ddm|= 0.191
HOMO:  -1.6184165147477947 LUMO:  -1.614235680323021
Fermi energy:      -1.6107163499
[2.     2.     2.     2.     2.     2.     2.     2.     1.8956 1.8896
 1.8844 1.8798 1.8748 1.8693 1.8623 1.8591 1.6469 1.3381]
entropy correction =  -0.02948410111702472
cycle= 36 E= -389.51954274243  delta_E= -0.0101  |g|= 0.00741  |ddm|= 0.164
HOMO:  -1.617916881023402 LUMO:  -1.613745473938351
Fermi energy:      -1.6103164767
[2.     2.     2.     2.     2.     2.     2.     2.     1.893  1.8885
 1.8832 1.8806 1.8769 1.8706 1.8704 1.8655 1.6411 1.3301]
entropy correction =  -0.029378650528303796
cycle= 37 E= -389.51965742616  delta_E= -0.000115  |g|= 0.00943  |ddm|= 0.0606
HOMO:  -1.6175800021382591 LUMO:  -1.61341414646445
Fermi energy:      -1.6100202214
[2.     2.     2.     2.     2.     2.     2.     2.     1.8923 1.8861
 1.8829 1.8822 1.8791 1.8739 1.8716 1.8663 1.6387 1.3269]
entropy correction =  -0.029334852872589225
cycle= 38 E= -389.519609160259  delta_E= 4.83e-05  |g|= 0.0149  |ddm|= 0.0332
HOMO:  -1.6177419293095094 LUMO:  -1.6135783556900192
Fermi energy:      -1.6101370065
[2.     2.     2.     2.     2.     2.     2.     2.     1.8892 1.8866
 1.8831 1.8792 1.8776 1.8736 1.8705 1.8677 1.6414 1.3312]
entropy correction =  -0.02939666460821363
cycle= 39 E= -389.519713058686  delta_E= -0.000104  |g|= 0.00192  |ddm|= 0.0241
HOMO:  -1.6178583059227647 LUMO:  -1.613692570605373
Fermi energy:      -1.6102197427
[2.     2.     2.     2.     2.     2.     2.     2.     1.8897 1.8861
 1.8819 1.8781 1.8769 1.8724 1.8703 1.8674 1.6433 1.334 ]
entropy correction =  -0.029436849267077823
cycle= 40 E= -389.519715420325  delta_E= -2.36e-06  |g|= 0.00157  |ddm|= 0.00629
HOMO:  -1.6178662505263932 LUMO:  -1.6137008818313388
Fermi energy:      -1.6102334964
[2.     2.     2.     2.     2.     2.     2.     2.     1.8896 1.886
 1.8822 1.8786 1.8769 1.8725 1.8705 1.8673 1.643  1.3335]
entropy correction =  -0.029429969528878042
cycle= 41 E= -389.519716133426  delta_E= -7.13e-07  |g|= 0.000836  |ddm|= 0.00141
HOMO:  -1.6178772511587682 LUMO:  -1.6137115303020342
Fermi energy:      -1.6102399874
[2.     2.     2.     2.     2.     2.     2.     2.     1.8897 1.886
 1.8822 1.8785 1.8766 1.8722 1.8705 1.8674 1.6433 1.3338]
entropy correction =  -0.02943524485794974
cycle= 42 E= -389.519716354042  delta_E= -2.21e-07  |g|= 0.000281  |ddm|= 0.00102
HOMO:  -1.617871603577984 LUMO:  -1.6137062584191166
Fermi energy:      -1.6102363942
[2.     2.     2.     2.     2.     2.     2.     2.     1.8896 1.886
 1.8821 1.8785 1.8767 1.8723 1.8706 1.8674 1.6431 1.3337]
entropy correction =  -0.029433109758092883
cycle= 43 E= -389.519716400859  delta_E= -4.68e-08  |g|= 3.63e-05  |ddm|= 0.000664
HOMO:  -1.6178699269569836 LUMO:  -1.6137044932670017
Fermi energy:      -1.6102369959
[2.     2.     2.     2.     2.     2.     2.     2.     1.8896 1.886
 1.8822 1.8785 1.8768 1.8723 1.8706 1.8674 1.643  1.3335]
entropy correction =  -0.02943016390870253
cycle= 44 E= -389.51971637826  delta_E= 2.26e-08  |g|= 0.000253  |ddm|= 0.000465
HOMO:  -1.6178680006594843 LUMO:  -1.6137025117633919
Fermi energy:      -1.6102352774
[2.     2.     2.     2.     2.     2.     2.     2.     1.8896 1.886
 1.8822 1.8785 1.8768 1.8723 1.8707 1.8674 1.643  1.3335]
entropy correction =  -0.0294298924483965
cycle= 45 E= -389.519716364413  delta_E= 1.38e-08  |g|= 0.000311  |ddm|= 0.000562
HOMO:  -1.6178695481957854 LUMO:  -1.6137040334630721
Fermi energy:      -1.6102357483
[2.     2.     2.     2.     2.     2.     2.     2.     1.8896 1.886
 1.8822 1.8785 1.8768 1.8723 1.8706 1.8674 1.6431 1.3336]
entropy correction =  -0.029431167307578
cycle= 46 E= -389.519716404639  delta_E= -4.02e-08  |g|= 1.78e-05  |ddm|= 0.00037
HOMO:  -1.6178691877382407 LUMO:  -1.6137037423391127
Fermi energy:      -1.6102353616
[2.     2.     2.     2.     2.     2.     2.     2.     1.8896 1.886
 1.8822 1.8785 1.8768 1.8723 1.8706 1.8674 1.6431 1.3336]
entropy correction =  -0.029431279019539774
cycle= 47 E= -389.519716405276  delta_E= -6.37e-10  |g|= 2.84e-05  |ddm|= 0.000143
HOMO:  -1.6178705988502249 LUMO:  -1.6137048274655919
Fermi energy:      -1.6102364739
[2.     2.     2.     2.     2.     2.     2.     2.     1.8896 1.886
 1.8821 1.8783 1.877  1.8726 1.8703 1.8673 1.6431 1.3336]
entropy correction =  -0.02943136000167239
Extra cycle  E= -389.519711455853  delta_E= 4.95e-06  |g|= 0.00368  |ddm|= 0.00164
entropy correction =  -0.02943136000167239
rks_ao.ne_frozen =  0
Set gradient conv threshold to 3.16228e-05
tot grids = 139880
init E= -79.0707359659897
HOMO:  0.16294519186782477 LUMO:  0.17603613788448422
Fermi energy:       0.1694882254
[2.0000e+00 2.0000e+00 2.0000e+00 2.0000e+00 2.0000e+00 2.0000e+00
 2.0000e+00 2.0000e+00 2.0000e+00 2.0000e+00 2.0000e+00 2.0000e+00
 2.0000e+00 2.0000e+00 2.0000e+00 2.0000e+00 2.0000e+00 2.0000e+00
 2.0000e+00 2.0000e+00 2.0000e+00 2.0000e+00 2.0000e+00 1.5746e+00
 4.2511e-01 3.2913e-04]
entropy correction =  -0.010364787596070615
cycle= 1 E= -86.3351904306061  delta_E= -7.26  |g|= 2.54  |ddm|= 9.75
HOMO:  0.8129874816516026 LUMO:  0.8373581796870769
Fermi energy:       0.8251624279
[2.0000e+00 2.0000e+00 2.0000e+00 2.0000e+00 2.0000e+00 2.0000e+00
 2.0000e+00 2.0000e+00 2.0000e+00 2.0000e+00 2.0000e+00 2.0000e+00
 2.0000e+00 2.0000e+00 2.0000e+00 2.0000e+00 2.0000e+00 2.0000e+00
 2.0000e+00 2.0000e+00 2.0000e+00 2.0000e+00 2.0000e+00 1.8389e+00
 1.6047e-01 6.3029e-04]
entropy correction =  -0.005624417918159239
cycle= 2 E= -87.1815322107074  delta_E= -0.846  |g|= 1.95  |ddm|= 5.65
HOMO:  0.8889598794307116 LUMO:  0.8937653066145432
Fermi energy:       0.8893944875
[2.     2.     2.     2.     2.     2.     2.     2.     2.     2.
 2.     2.     2.     2.     2.     2.     2.     2.     2.     2.
 1.9999 1.9898 1.9476 1.0434 0.5888 0.2798 0.1366 0.0141]
entropy correction =  -0.021482391376925175
cycle= 3 E= -88.3642792423818  delta_E= -1.18  |g|= 0.249  |ddm|= 2.45
HOMO:  0.8207640208292613 LUMO:  0.8590853246940441
Fermi energy:       0.8388991935
[2.0000e+00 2.0000e+00 2.0000e+00 2.0000e+00 2.0000e+00 2.0000e+00
 2.0000e+00 2.0000e+00 2.0000e+00 2.0000e+00 2.0000e+00 2.0000e+00
 2.0000e+00 2.0000e+00 2.0000e+00 2.0000e+00 2.0000e+00 2.0000e+00
 2.0000e+00 2.0000e+00 2.0000e+00 2.0000e+00 2.0000e+00 1.9482e+00
 3.4681e-02 9.5222e-03 6.5330e-03 1.0770e-03]
entropy correction =  -0.002644756289082728
cycle= 4 E= -88.3830596316129  delta_E= -0.0188  |g|= 0.23  |ddm|= 1.32
HOMO:  0.8464766055567392 LUMO:  0.8719398108550057
Fermi energy:       0.8580014151
[2.     2.     2.     2.     2.     2.     2.     2.     2.     2.
 2.     2.     2.     2.     2.     2.     2.     2.     2.     2.
 2.     1.9999 1.9999 1.8186 0.116  0.0341 0.0201 0.0115]
entropy correction =  -0.007043186949489283
cycle= 5 E= -88.4014415605664  delta_E= -0.0184  |g|= 0.0804  |ddm|= 0.228
HOMO:  0.8648155749441713 LUMO:  0.88033623139128
Fermi energy:       0.8709533595
[2.     2.     2.     2.     2.     2.     2.     2.     2.     2.
 2.     2.     2.     2.     2.     2.     2.     2.     2.     2.
 2.     1.9996 1.9992 1.5468 0.2656 0.1074 0.0441 0.0374]
entropy correction =  -0.01340196919734253
cycle= 6 E= -88.4052492143055  delta_E= -0.00381  |g|= 0.0175  |ddm|= 0.238
HOMO:  0.8615168330096573 LUMO:  0.8782359120960351
Fermi energy:       0.8684753936
[2.     2.     2.     2.     2.     2.     2.     2.     2.     2.
 2.     2.     2.     2.     2.     2.     2.     2.     2.     2.
 2.     1.9995 1.9988 1.6017 0.2486 0.0816 0.0393 0.0304]
entropy correction =  -0.012277455774216413
cycle= 7 E= -88.4054030860292  delta_E= -0.000154  |g|= 0.00458  |ddm|= 0.0529
HOMO:  0.8621345870193735 LUMO:  0.8782710689402288
Fermi energy:       0.8688174833
[2.     2.     2.     2.     2.     2.     2.     2.     2.     2.
 2.     2.     2.     2.     2.     2.     2.     2.     2.     2.
 2.     1.9995 1.9987 1.5839 0.2623 0.0838 0.0405 0.0313]
entropy correction =  -0.012614635769499545
cycle= 8 E= -88.4054176855981  delta_E= -1.46e-05  |g|= 0.00155  |ddm|= 0.016
HOMO:  0.8621425141658872 LUMO:  0.8782468155125975
Fermi energy:       0.8688148221
[2.     2.     2.     2.     2.     2.     2.     2.     2.     2.
 2.     2.     2.     2.     2.     2.     2.     2.     2.     2.
 2.     1.9995 1.9987 1.5832 0.2633 0.0836 0.0405 0.0312]
entropy correction =  -0.012624594793799071
cycle= 9 E= -88.4054187751541  delta_E= -1.09e-06  |g|= 0.000441  |ddm|= 0.00292
HOMO:  0.8620784366188466 LUMO:  0.8781874676156601
Fermi energy:       0.8687630354
[2.     2.     2.     2.     2.     2.     2.     2.     2.     2.
 2.     2.     2.     2.     2.     2.     2.     2.     2.     2.
 2.     1.9995 1.9987 1.584  0.2637 0.0828 0.0403 0.0311]
entropy correction =  -0.012603530357109191
cycle= 10 E= -88.4054188764926  delta_E= -1.01e-07  |g|= 0.000182  |ddm|= 0.0014
HOMO:  0.8620760356777399 LUMO:  0.8781771154263631
Fermi energy:       0.8687590148
[2.     2.     2.     2.     2.     2.     2.     2.     2.     2.
 2.     2.     2.     2.     2.     2.     2.     2.     2.     2.
 2.     1.9995 1.9987 1.5839 0.2639 0.0827 0.0403 0.0311]
entropy correction =  -0.012604309109328011
cycle= 11 E= -88.405418891661  delta_E= -1.52e-08  |g|= 5.4e-05  |ddm|= 0.000439
HOMO:  0.8620853203334988 LUMO:  0.8781800742040651
Fermi energy:       0.8687651021
[2.     2.     2.     2.     2.     2.     2.     2.     2.     2.
 2.     2.     2.     2.     2.     2.     2.     2.     2.     2.
 2.     1.9995 1.9987 1.5836 0.2641 0.0827 0.0403 0.0311]
entropy correction =  -0.012608373950853423
cycle= 12 E= -88.405418893576  delta_E= -1.91e-09  |g|= 1.12e-05  |ddm|= 0.000185
HOMO:  0.8620837996803209 LUMO:  0.8781790648822944
Fermi energy:       0.8687639626
[2.     2.     2.     2.     2.     2.     2.     2.     2.     2.
 2.     2.     2.     2.     2.     2.     2.     2.     2.     2.
 2.     1.9995 1.9987 1.5837 0.2641 0.0827 0.0403 0.0311]
entropy correction =  -0.0126078107832197
cycle= 13 E= -88.4054188936505  delta_E= -7.46e-11  |g|= 2.98e-06  |ddm|= 2.74e-05
HOMO:  0.8620831986349872 LUMO:  0.87817872772644
Fermi energy:       0.8687635381
[2.     2.     2.     2.     2.     2.     2.     2.     2.     2.
 2.     2.     2.     2.     2.     2.     2.     2.     2.     2.
 2.     1.9995 1.9987 1.5837 0.2641 0.0827 0.0403 0.0311]
entropy correction =  -0.01260756052263039
Extra cycle  E= -88.405418893645  delta_E= 5.49e-12  |g|= 4.48e-06  |ddm|= 1.37e-05
entropy correction =  -0.01260756052263039
scf energies:
EA (no vemb contrib.) =  -445.5425779490867
EB (no vemb contrib.) =  -181.59251848371605
W =  -626.8128836862813
P_imp change (scf - non-scf):  0.39739530399125045
P_bath change (scf - non-scf):  0.5067430563760523
|P_frag + P_env - P_ref| =  0.8263659451381518
max element of (P_frag + P_env - P_ref) =  0.07517860199645802
mo orthogonality:
[[-8.6370e-03  6.2554e-04  4.4814e-05  5.4578e-06  6.0413e-04 -5.6666e-05
   6.7604e-03  5.6031e-04  1.2045e-04  8.0633e-05  1.5606e-04  2.8686e-03
   3.6127e-04 -9.4299e-04  1.0467e-01  6.0448e-03  9.2799e-04  4.8113e-04
  -5.3026e-04 -4.8588e-03 -1.0978e-01  1.9201e-03  2.8964e-03  1.4197e-04
  -8.1830e-07  1.8883e-03 -6.3959e-02 -5.0044e-03  3.3994e-03]
 [ 6.6404e-04  8.0848e-03 -1.1793e-05  8.1948e-05  1.8526e-02  4.6615e-05
   3.1243e-04 -5.3102e-03  9.1165e-05 -1.4896e-03 -2.3637e-03  3.6506e-04
  -5.7839e-04 -2.0369e-04 -6.1612e-03  1.0518e-01 -3.0872e-04  2.2416e-05
  -5.6070e-05 -1.2671e-03  3.1614e-03 -4.3886e-04  9.8209e-02 -1.3166e-04
  -5.6169e-04 -9.9937e-04 -9.9778e-03  8.5128e-02  5.4059e-03]
 [ 5.8973e-03 -5.1572e-04  2.5933e-05 -2.3721e-04  4.0625e-04 -4.2789e-04
   1.1188e-02  1.5741e-03  6.3993e-04  2.0011e-05 -1.5135e-04 -1.2080e-03
  -7.5483e-05  2.1643e-04 -4.2547e-02 -2.6484e-03  1.5771e-03 -1.6586e-04
   2.0558e-05 -1.2354e-03 -2.8331e-02  9.0792e-04  1.4016e-03 -1.6425e-04
   3.3063e-04 -1.6079e-03  2.2758e-02  3.4798e-03 -1.3427e-03]
 [ 5.3182e-04  7.2475e-03  4.4916e-04  7.2776e-05 -1.2167e-02 -8.5047e-05
   1.5059e-03 -1.0315e-02  1.7016e-04 -1.2536e-03 -1.3915e-03  1.7426e-04
  -1.1771e-04 -5.0634e-05 -2.5784e-03  4.4066e-02  9.7932e-05  2.8419e-03
  -2.1437e-05  4.5257e-04 -8.5768e-04  1.8008e-04 -4.5463e-02 -1.3065e-04
   3.0979e-04 -8.4559e-05  2.2667e-03 -2.1867e-02  1.8270e-03]
 [ 1.4147e-05 -3.8738e-04  7.8683e-03  9.6319e-04  5.9712e-04  9.7554e-04
  -1.3135e-04  6.7847e-04 -2.8598e-05  3.9113e-04 -9.1713e-03  2.7095e-03
   4.8810e-04  1.7770e-04 -2.4221e-04 -2.4130e-03 -4.1445e-03  6.0092e-02
  -7.1893e-05 -1.0194e-05 -9.7860e-05 -7.9112e-04  2.2487e-03 -1.9620e-03
  -4.9796e-05  1.8494e-03 -5.5138e-04  2.8399e-03 -2.3275e-02]
 [ 2.1322e-04 -4.2900e-05 -9.9831e-04  6.3857e-03 -1.0674e-04  1.2804e-02
   9.8734e-04  9.1537e-06 -1.9956e-04 -4.9759e-05  2.4141e-03  6.4528e-03
  -1.4127e-04  2.3835e-04 -1.2158e-03  1.5403e-04 -5.1794e-02 -4.7208e-03
  -2.3100e-04 -6.3596e-05 -1.1591e-03 -1.0406e-02 -3.4434e-04  5.3067e-05
  -2.2229e-04  2.5941e-02  1.6764e-03  2.1813e-04  2.4506e-03]
 [-3.1139e-05 -4.3399e-06  1.0856e-06  1.8126e-05  2.0231e-05  7.6200e-05
  -9.2869e-04 -6.8041e-05  2.3541e-02  2.8022e-03  1.9662e-04 -8.8183e-05
   1.7468e-04  8.6722e-05  3.0560e-04  7.1519e-06 -4.6912e-04  5.1250e-05
   2.2733e-02  1.0810e-04  7.8330e-05 -4.7427e-05  3.4496e-05  1.4313e-05
   4.9016e-02 -6.5769e-04 -1.0201e-04  5.6936e-04 -1.4468e-04]
 [ 1.3721e-05 -6.8276e-05 -7.4257e-05  6.5430e-06  7.7843e-05  2.0293e-05
  -2.4001e-04  1.5018e-03  2.9804e-03 -2.0355e-02 -1.5445e-03  3.6337e-04
   1.8270e-04 -1.6838e-04  1.2384e-04 -4.9944e-04 -6.5643e-05 -6.1201e-04
   2.1738e-03  2.8780e-06  6.7147e-05 -2.2735e-06  3.7247e-04 -1.1166e-04
   4.7334e-03 -1.3650e-04 -6.1451e-04 -1.9837e-03  1.2980e-03]
 [-9.0537e-04  3.0237e-04  1.1110e-05 -8.6767e-05 -6.6640e-06  2.8482e-04
  -1.7238e-02 -2.8512e-03 -3.9887e-03 -5.0779e-04 -3.9822e-05 -1.2641e-03
   4.6807e-03 -8.0702e-03  1.3552e-03 -7.5192e-04 -2.2567e-03  4.3548e-06
   6.7228e-03  1.8048e-03  1.9842e-03  4.2381e-03  7.8646e-04 -2.8725e-04
   2.6968e-04 -8.8792e-04  7.1532e-03 -1.5182e-03 -5.6746e-04]
 [ 2.7472e-03 -9.1996e-04 -3.2052e-05  3.4598e-05 -1.1194e-03 -1.9919e-04
   1.2616e-02  1.9546e-03 -5.9950e-03  4.4512e-04  3.5928e-04  1.5743e-03
   4.7218e-03 -9.4193e-03  2.3516e-04  1.5387e-03  1.3882e-03 -7.6317e-06
   1.2922e-02  1.2361e-03 -2.4268e-03 -2.4958e-03 -4.9638e-04  9.9190e-05
   5.4000e-04  8.2956e-04 -1.8541e-02  7.7896e-03  1.2257e-03]
 [ 1.8625e-03 -1.8258e-03 -3.0021e-05 -5.9374e-05 -3.6856e-03  1.1281e-04
   1.6093e-04 -1.1410e-03  3.4398e-04  2.1768e-03  8.8156e-04 -7.8138e-04
   1.4024e-02  7.6255e-03  1.2381e-03  2.5068e-03 -6.5344e-04  2.4005e-05
  -1.2151e-03  1.6309e-02 -1.4282e-03  1.2475e-03  1.1671e-03 -8.5444e-04
  -2.2779e-04 -2.0788e-04 -1.5006e-02  2.2968e-02  1.4827e-03]
 [ 4.6385e-03 -6.4200e-03 -2.9601e-05 -1.4128e-04 -1.7787e-02  1.7772e-04
   1.5774e-03 -1.5955e-02 -1.1793e-03 -2.4303e-03 -3.2942e-04 -1.1512e-03
  -3.0809e-03  1.2473e-03  3.1749e-03  4.2338e-03 -1.3459e-03  1.5476e-04
   2.6878e-03 -2.9779e-03 -1.8025e-03  2.6829e-03  1.2681e-02 -1.5006e-03
  -5.8982e-04 -6.8719e-04 -4.2182e-02  9.3739e-02  4.1404e-03]
 [-1.6201e-02 -1.9755e-03  1.3914e-04  1.7991e-04 -6.8275e-03 -6.4620e-04
   1.0944e-03 -4.7680e-03  2.1851e-04 -4.5213e-04  7.1605e-04  2.1477e-03
   1.7256e-03 -9.2006e-04 -1.0593e-02  2.3060e-03  3.0642e-03  1.5982e-04
  -1.6651e-04  1.4902e-03  5.7699e-03 -6.4786e-03  3.6516e-03 -1.5036e-03
  -2.7407e-04 -2.2037e-03  8.8782e-02  5.2057e-02 -1.6184e-03]
 [ 1.7331e-03  2.5175e-03  8.3006e-06  9.2601e-05  2.2577e-03 -2.0906e-04
   3.4592e-03 -4.7162e-03  7.0283e-03 -5.0120e-03  3.5565e-04  1.3307e-03
   5.9521e-03 -5.6303e-03  7.3401e-04 -6.0483e-03  1.3698e-03 -8.5225e-06
  -1.3520e-02  3.3766e-03 -1.0380e-03 -2.5902e-03  4.4685e-03 -7.4545e-04
  -3.9433e-04  1.2278e-03 -5.1249e-03 -2.9716e-02 -2.2184e-03]
 [-1.4669e-03  5.8825e-03  4.7860e-05  6.4570e-05  8.2355e-03  1.6432e-04
   1.0740e-03 -4.4174e-03 -6.3206e-03 -4.4455e-03 -2.5212e-05 -8.1125e-04
   6.2591e-04  7.4060e-03 -8.3439e-04 -1.0982e-02 -5.3084e-04 -1.5159e-05
   1.3138e-02  3.2017e-03  3.9371e-04  1.0155e-03  3.9260e-03 -7.5654e-05
   1.0729e-03  4.4661e-04  2.0654e-02 -7.0476e-02 -5.0510e-03]
 [-1.4031e-04 -6.2167e-03 -1.5787e-05 -1.2413e-04 -6.2576e-03  5.5986e-05
  -1.9430e-03  1.1326e-02 -1.2531e-03 -4.8251e-03 -9.8248e-04 -2.5830e-04
   8.3904e-04  2.3532e-03 -1.3604e-04  1.3799e-02 -6.1486e-04 -1.9734e-05
   2.5614e-03  2.0319e-03 -3.6706e-05  1.1494e-03 -8.9841e-03 -1.1855e-03
  -3.7392e-04 -1.1801e-03 -1.1268e-02  7.1684e-02  4.9956e-03]
 [-8.3660e-04  6.5705e-05  2.1573e-04 -3.7574e-03 -3.4323e-05  1.1389e-02
   2.6314e-03  5.9424e-04 -3.4696e-04  2.8414e-05 -1.2027e-02 -5.0059e-02
   1.1388e-03 -2.8362e-03  1.4327e-03 -1.7416e-04 -7.0612e-02 -2.5445e-04
   1.6099e-04  7.6707e-04  2.7213e-03  1.3945e-01  5.8675e-04  1.9321e-03
  -5.1378e-04 -2.5547e-02  3.6257e-03 -6.7953e-04  4.8395e-04]
 [-4.2502e-05 -2.5564e-05 -1.3863e-04  2.8133e-05 -1.3215e-04 -1.4324e-04
  -6.1979e-05 -4.0764e-04  3.0777e-05 -1.3703e-03  9.9467e-03 -2.0854e-03
  -5.3985e-04 -1.7685e-04  8.1745e-05  2.6672e-04  3.8720e-04  2.0134e-03
  -8.4162e-05  1.6978e-04 -3.4126e-04 -1.1050e-03  1.1717e-04  2.6703e-01
   4.7264e-05  2.9855e-04  4.0963e-03  1.5131e-03  4.5427e-02]]
|P_imp-P_imp_0| =  0.39739530399125045
max(P_imp-P_imp_0) =  0.0594214686791259
|P_bath-P_bath_0| =  0.5067430563760523
max(P_bath-P_bath_0) =  0.0474013670647907
time of total calc time : 74247.680  (cpu),  1959.715  (wall) 
Skip  = number of BFGS updates skipped
Nact  = number of active bounds at final generalized Cauchy point
Projg = norm of the final projected gradient
F     = final function value

           * * *

   N    Tit     Tnf  Tnint  Skip  Nact     Projg        F
 4278     50     56      1     0     0   2.639D-01   1.908D-01
  F =  0.19075391450690302     

STOP: TOTAL NO. of ITERATIONS REACHED LIMIT                 

 Cauchy                time 0.000E+00 seconds.
 Subspace minimization time 0.000E+00 seconds.
 Line search           time 0.000E+00 seconds.

 Total User time 0.000E+00 seconds.

