#INFO: **** input file is /tigress/xingz/pydmfet/examples/research/proj/Cu2/dmfet/Cu2.py ****
from pydmfet import locints, sdmfet, oep, tools, dfet_ao, proj_ao
from pydmfet.dfet_ao import dfet
from pydmfet.qcwrap.pyscf_rks_ao import rks_ao
from pyscf import gto, scf,dft, ao2mo,cc
import numpy as np
from pyscf.tools import molden, cubegen
import copy,time
from pydmfet.tools.sym import h_lattice_sym_tab
import time

t0 = (time.clock(), time.time())


bas = 'lanl2dz'
ecp = 'lanl2dz'
temp = 0.005


mol = gto.Mole()
mol.atom = open('Cu2.xyz').read()
mol.basis = bas
mol.ecp = ecp
mol.charge = -2
mol.build(max_memory = 16000, verbose=4)

mf = rks_ao(mol,smear_sigma = temp)
mf.xc = 'pbe,pbe'
mf.max_cycle = 50
mf.scf(dm0=None)


natoms = mol.natm
impAtom = np.zeros([natoms], dtype=int)
for i in range(2):
    impAtom[i] = 1

ghost_frag = 1-impAtom
ghost_env = 1-ghost_frag

mol_frag = gto.Mole()
mol_frag.atom = tools.add_ghost(mol.atom, ghost_frag)
mol_frag.basis = bas
mol_frag.ecp = ecp
mol_frag.charge = 4
mol_frag.build(max_memory = 16000,verbose = 4)

mol_env = gto.Mole()
mol_env.atom = tools.add_ghost(mol.atom, ghost_env)
mol_env.basis =  bas
mol_env.ecp = ecp
mol_env.charge = -6
mol_env.build(max_memory = 16000,verbose = 4)

Ne_frag = 34
Ne_env = 48

boundary_atoms = None
boundary_atoms2 =None

umat = None
umat = np.load("umat.npy")

params = oep.OEPparams(algorithm = 'leastsq', opt_method = 'L-BFGS-B', diffP_tol=1e-3, outer_maxit = 20)
params.options['ftol'] = 1e-9
params.options['gtol'] = 1e-3
params.options['maxiter'] = 50
params.options['svd_thresh'] = 1e-2

theDMFET = dfet.DFET(mf, mol_frag, mol_env,Ne_frag,Ne_env,\
                     boundary_atoms=boundary_atoms, boundary_atoms2=boundary_atoms2,umat = umat,\
                     oep_params=params, smear_sigma=temp, ecw_method = 'hf',mf_method = mf.xc, plot_dens=True,\
                     scf_max_cycle = 200)

umat = theDMFET.embedding_potential()

t1 = tools.timer("total calc time", t0)
#INFO: ******************** input file end ********************


System: uname_result(system='Linux', node='tiger-h25c2n24', release='3.10.0-957.27.2.el7.x86_64', version='#1 SMP Tue Jul 30 11:12:20 EDT 2019', machine='x86_64', processor='x86_64')  Threads 40
Python 3.7.0 (default, Jun 28 2018, 13:15:42) 
[GCC 7.2.0]
numpy 1.16.4  scipy 1.4.0.dev0+0f78e0f
Date: Sat Sep  7 20:06:32 2019
PySCF version 1.5
PySCF path  /home/xingz/.local/lib/python3.7/site-packages/pyscf

[CONFIG] conf_file None
[INPUT] verbose = 4
[INPUT] num. atoms = 8
[INPUT] num. electrons = 82
[INPUT] charge = -2
[INPUT] spin (= nelec alpha-beta = 2S) = 0
[INPUT] symmetry False subgroup None
[INPUT] Mole.unit = angstrom
[INPUT]  1 Cu    -0.441980000000   1.042360000000  -0.035730000000 AA   -0.835221152535   1.969774923202  -0.067519914431 Bohr
[INPUT]  2 Cu     2.942440000000   1.248890000000   0.035730000000 AA    5.560405737965   2.360060059708   0.067519914431 Bohr
[INPUT]  3 Cl    -1.897990000000  -0.682570000000   0.075050000000 AA   -3.586681287163  -1.289870360844   0.141823945649 Bohr
[INPUT]  4 Cl    -2.090880000000   2.577820000000  -0.212080000000 AA   -3.951190559331   4.871373798426  -0.400773116498 Bohr
[INPUT]  5 Cl     1.158810000000   2.690810000000  -0.136080000000 AA    2.189833530407   5.084893953241  -0.257153931031 Bohr
[INPUT]  6 Cl     1.341650000000  -0.399560000000   0.136080000000 AA    2.535351055023  -0.755058970331   0.257153931031 Bohr
[INPUT]  7 Cl     4.398440000000   2.973820000000  -0.075050000000 AA    8.311846975332   5.619705343754  -0.141823945649 Bohr
[INPUT]  8 Cl     4.591340000000  -0.286580000000   0.212080000000 AA    8.676375144761  -0.541557712778   0.400773116498 Bohr

nuclear repulsion = 451.217501293853
number of shells = 38
number of NR pGTOs = 162
number of NR cGTOs = 92
basis = lanl2dz
ecp = lanl2dz
CPU time:         2.89
rks_ao.ne_frozen =  0


******** <class 'pydmfet.qcwrap.pyscf_rks_ao.rks_ao'> flags ********
method = rks_ao-RKS-RHF
initial guess = minao
damping factor = 0
level shift factor = 0
DIIS = <class 'pyscf.scf.diis.CDIIS'>
DIIS start cycle = 1
DIIS space = 8
SCF tol = 1e-09
SCF gradient tol = None
max. SCF cycles = 50
direct_scf = False
chkfile to save SCF result = /tmp/tmpq__s9ndv
max_memory 16000 MB (current use 72 MB)
XC functionals = pbe,pbe
small_rho_cutoff = 1e-07
radial grids: 
    Treutler-Ahlrichs (JCP 102, 346 (M4)) radial grids
    
becke partition: Becke, JCP, 88, 2547 (1988)
pruning grids: <function nwchem_prune at 0x2b7fcad4b400>
grids dens level: 3
symmetrized grids: False
atomic radii adjust function: <function treutler_atomic_radii_adjust at 0x2b7fcad4b378>
Set gradient conv threshold to 3.16228e-05
tot grids = 154128
init E= -467.462792451998
HOMO:  0.21874871437076007 LUMO:  0.2283143750193894
Fermi energy:       0.2235718634
[2.     2.     2.     2.     2.     2.     2.     2.     2.     2.
 2.     2.     2.     2.     2.     2.     2.     2.     2.     2.
 2.     2.     2.     2.     2.     2.     2.     2.     2.     2.
 2.     2.     2.     2.     2.     2.     2.     2.     2.     1.9935
 1.4481 0.5584]
entropy correction =  -0.012030461857612638
cycle= 1 E= -410.105804071394  delta_E= 57.4  |g|= 8.39  |ddm|= 25.9
HOMO:  -1.563009642072624 LUMO:  -1.5367266498379115
Fermi energy:      -1.5499972181
[2.0000e+00 2.0000e+00 2.0000e+00 2.0000e+00 2.0000e+00 2.0000e+00
 2.0000e+00 2.0000e+00 2.0000e+00 2.0000e+00 2.0000e+00 2.0000e+00
 2.0000e+00 2.0000e+00 2.0000e+00 2.0000e+00 2.0000e+00 2.0000e+00
 2.0000e+00 2.0000e+00 2.0000e+00 2.0000e+00 2.0000e+00 2.0000e+00
 2.0000e+00 2.0000e+00 2.0000e+00 2.0000e+00 2.0000e+00 2.0000e+00
 2.0000e+00 2.0000e+00 2.0000e+00 2.0000e+00 2.0000e+00 2.0000e+00
 2.0000e+00 2.0000e+00 2.0000e+00 1.9796e+00 1.8620e+00 1.3147e-01
 2.6598e-02 2.7833e-04]
entropy correction =  -0.006223922518916518
cycle= 2 E= -401.538612213435  delta_E= 8.57  |g|= 7.31  |ddm|= 29.4
HOMO:  -0.13457902039486055 LUMO:  -0.059483384256791574
Fermi energy:      -0.0972415566
[2.0000e+00 2.0000e+00 2.0000e+00 2.0000e+00 2.0000e+00 2.0000e+00
 2.0000e+00 2.0000e+00 2.0000e+00 2.0000e+00 2.0000e+00 2.0000e+00
 2.0000e+00 2.0000e+00 2.0000e+00 2.0000e+00 2.0000e+00 2.0000e+00
 2.0000e+00 2.0000e+00 2.0000e+00 2.0000e+00 2.0000e+00 2.0000e+00
 2.0000e+00 2.0000e+00 2.0000e+00 2.0000e+00 2.0000e+00 2.0000e+00
 2.0000e+00 2.0000e+00 2.0000e+00 2.0000e+00 2.0000e+00 2.0000e+00
 2.0000e+00 2.0000e+00 2.0000e+00 2.0000e+00 1.9989e+00 1.0500e-03]
entropy correction =  -9.862463108497511e-05
cycle= 3 E= -466.993953695777  delta_E= -65.5  |g|= 5.85  |ddm|= 17.5
HOMO:  -0.1963237795386062 LUMO:  -0.19597791274160717
Fermi energy:      -0.1928443984
[2.     2.     2.     2.     2.     2.     2.     2.     2.     2.
 2.     2.     2.     2.     2.     2.     2.     2.     2.     2.
 2.     2.     2.     2.     2.     2.     2.     2.     2.     2.
 2.     2.     1.9998 1.9993 1.9979 1.9965 1.9471 1.9432 1.7416 1.7367
 1.3345 1.3035]
entropy correction =  -0.023337439476190616
cycle= 4 E= -479.585920348136  delta_E= -12.6  |g|= 3.08  |ddm|=   11
HOMO:  -0.05933827387168562 LUMO:  -0.058346572330464225
Fermi energy:      -0.0587610219
[2.     2.     2.     2.     2.     2.     2.     2.     2.     2.
 2.     2.     2.     2.     2.     2.     2.     2.     2.     2.
 2.     2.     2.     2.     2.     2.     2.     2.     2.     2.
 2.     2.     2.     2.     2.     2.     2.     2.     1.9952 1.9886
 1.0577 0.9586]
entropy correction =  -0.014359029431147708
cycle= 5 E= -480.69288228319  delta_E= -1.11  |g|= 2.31  |ddm|= 2.58
HOMO:  -0.0891455498058925 LUMO:  -0.08619386496823335
Fermi energy:      -0.0862274399
[2.     2.     2.     2.     2.     2.     2.     2.     2.     2.
 2.     2.     2.     2.     2.     2.     2.     2.     2.     2.
 2.     2.     2.     2.     2.     2.     2.     2.     2.     2.
 2.     2.     2.     1.9996 1.9996 1.9987 1.9985 1.9947 1.9796 1.7489
 1.2838 0.9966]
entropy correction =  -0.0181433530445532
cycle= 6 E= -481.537345800991  delta_E= -0.844  |g|= 1.68  |ddm|= 1.24
HOMO:  -0.03672394537285177 LUMO:  -0.03666691925235686
Fermi energy:      -0.0355754632
[2.     2.     2.     2.     2.     2.     2.     2.     2.     2.
 2.     2.     2.     2.     2.     2.     2.     2.     2.     2.
 2.     2.     2.     2.     2.     2.     2.     2.     2.     2.
 2.     2.     1.9994 1.9978 1.9955 1.9897 1.9852 1.9687 1.9249 1.9157
 1.1143 1.1087]
entropy correction =  -0.018924041241956
cycle= 7 E= -481.434005675674  delta_E= 0.103  |g|= 1.83  |ddm|= 1.23
HOMO:  -0.031738420051157956 LUMO:  -0.028304041170060044
Fermi energy:      -0.0293123723
[2.     2.     2.     2.     2.     2.     2.     2.     2.     2.
 2.     2.     2.     2.     2.     2.     2.     2.     2.     2.
 2.     2.     2.     2.     2.     2.     2.     2.     2.     2.
 2.     2.     1.9999 1.9995 1.9994 1.9991 1.9991 1.9983 1.9857 1.8815
 1.238  0.8995]
entropy correction =  -0.016403779535481375
cycle= 8 E= -481.849488238144  delta_E= -0.415  |g|= 1.29  |ddm|= 1.31
HOMO:  -0.01033337674863747 LUMO:  0.0007074607280786642
Fermi energy:      -0.0039251597
[2.     2.     2.     2.     2.     2.     2.     2.     2.     2.
 2.     2.     2.     2.     2.     2.     2.     2.     2.     2.
 2.     2.     2.     2.     2.     2.     2.     2.     2.     2.
 2.     1.9993 1.9989 1.9983 1.9929 1.9922 1.9893 1.984  1.9793 1.9331
 1.5655 0.5673]
entropy correction =  -0.014677098352689997
cycle= 9 E= -482.044475986868  delta_E= -0.195  |g|= 1.07  |ddm|= 0.906
HOMO:  0.06987607218024063 LUMO:  0.08736480550455436
Fermi energy:       0.0786614213
[2.     2.     2.     2.     2.     2.     2.     2.     2.     2.
 2.     2.     2.     2.     2.     2.     2.     2.     2.     2.
 2.     2.     2.     2.     2.     2.     2.     2.     2.     2.
 2.     2.     2.     2.     2.     2.     1.9997 1.9996 1.9983 1.9983
 1.7057 0.2985]
entropy correction =  -0.008565033817754591
cycle= 10 E= -482.032581867749  delta_E= 0.0119  |g|= 0.915  |ddm|= 1.43
HOMO:  0.08962837487863264 LUMO:  0.13004696664591928
Fermi energy:       0.1120849792
[2.     2.     2.     2.     2.     2.     2.     2.     2.     2.
 2.     2.     2.     2.     2.     2.     2.     2.     2.     2.
 2.     2.     2.     2.     2.     2.     2.     2.     2.     2.
 2.     2.     2.     2.     2.     2.     2.     1.9948 1.9914 1.9824
 1.9778 0.0536]
entropy correction =  -0.0028063847858372537
cycle= 11 E= -481.373880256296  delta_E= 0.659  |g|=  1.9  |ddm|= 2.31
HOMO:  0.0550264700145485 LUMO:  0.06384159073873577
Fermi energy:       0.0595089657
[2.     2.     2.     2.     2.     2.     2.     2.     2.     2.
 2.     2.     2.     2.     2.     2.     2.     2.     2.     2.
 2.     2.     2.     2.     2.     2.     2.     2.     2.     2.
 2.     2.     2.     1.9999 1.9995 1.9994 1.9993 1.9992 1.9982 1.992
 1.4205 0.592 ]
entropy correction =  -0.012547716308111707
cycle= 12 E= -482.271816530075  delta_E= -0.898  |g|= 0.277  |ddm|= 1.34
HOMO:  0.056438609387965785 LUMO:  0.07796708259314176
Fermi energy:       0.0675524745
[2.     2.     2.     2.     2.     2.     2.     2.     2.     2.
 2.     2.     2.     2.     2.     2.     2.     2.     2.     2.
 2.     2.     2.     2.     2.     2.     2.     2.     2.     2.
 2.     2.     2.     2.     2.     2.     1.9977 1.9957 1.995  1.9855
 1.8046 0.2215]
entropy correction =  -0.007530677378653617
cycle= 13 E= -482.060208343546  delta_E= 0.212  |g|= 0.773  |ddm|= 1.43
HOMO:  0.05617821664756384 LUMO:  0.06568034702745057
Fermi energy:       0.0610293925
[2.     2.     2.     2.     2.     2.     2.     2.     2.     2.
 2.     2.     2.     2.     2.     2.     2.     2.     2.     2.
 2.     2.     2.     2.     2.     2.     2.     2.     2.     2.
 2.     2.     1.9999 1.9998 1.9994 1.9992 1.9992 1.999  1.9978 1.9895
 1.4503 0.5658]
entropy correction =  -0.012402978316954881
cycle= 14 E= -482.267546251086  delta_E= -0.207  |g|= 0.281  |ddm|= 0.726
HOMO:  0.05930112599784384 LUMO:  0.06695698252038507
Fermi energy:       0.0631998466
[2.     2.     2.     2.     2.     2.     2.     2.     2.     2.
 2.     2.     2.     2.     2.     2.     2.     2.     2.     2.
 2.     2.     2.     2.     2.     2.     2.     2.     2.     2.
 2.     2.     1.9999 1.9998 1.9994 1.9994 1.9994 1.9993 1.9984 1.9921
 1.3712 0.641 ]
entropy correction =  -0.012948192699546899
cycle= 15 E= -482.28883097831  delta_E= -0.0213  |g|= 0.142  |ddm|= 0.204
HOMO:  0.060335189598243445 LUMO:  0.06854982964659735
Fermi energy:       0.0644944493
[2.     2.     2.     2.     2.     2.     2.     2.     2.     2.
 2.     2.     2.     2.     2.     2.     2.     2.     2.     2.
 2.     2.     2.     2.     2.     2.     2.     2.     2.     2.
 2.     2.     2.     1.9998 1.9996 1.9995 1.9994 1.9994 1.9988 1.9946
 1.3935 0.6153]
entropy correction =  -0.012649979531611772
cycle= 16 E= -482.286904602522  delta_E= 0.00193  |g|= 0.167  |ddm|= 0.0792
HOMO:  0.06025941725742113 LUMO:  0.06764775012193856
Fermi energy:       0.0640073156
[2.     2.     2.     2.     2.     2.     2.     2.     2.     2.
 2.     2.     2.     2.     2.     2.     2.     2.     2.     2.
 2.     2.     2.     2.     2.     2.     2.     2.     2.     2.
 2.     2.     2.     1.9998 1.9996 1.9995 1.9994 1.9992 1.9991 1.9941
 1.3582 0.6512]
entropy correction =  -0.012946747460867528
cycle= 17 E= -482.294507326897  delta_E= -0.0076  |g|= 0.0877  |ddm|= 0.123
HOMO:  0.060848833621301224 LUMO:  0.06807282694888388
Fermi energy:       0.0645100754
[2.     2.     2.     2.     2.     2.     2.     2.     2.     2.
 2.     2.     2.     2.     2.     2.     2.     2.     2.     2.
 2.     2.     2.     2.     2.     2.     2.     2.     2.     2.
 2.     2.     2.     1.9998 1.9996 1.9995 1.9995 1.9993 1.9991 1.9946
 1.3506 0.6581]
entropy correction =  -0.012975286935723768
cycle= 18 E= -482.296571538252  delta_E= -0.00206  |g|= 0.0329  |ddm|= 0.0713
HOMO:  0.06113391111445692 LUMO:  0.0683567658472966
Fermi energy:       0.0647923579
[2.     2.     2.     2.     2.     2.     2.     2.     2.     2.
 2.     2.     2.     2.     2.     2.     2.     2.     2.     2.
 2.     2.     2.     2.     2.     2.     2.     2.     2.     2.
 2.     2.     2.     1.9998 1.9996 1.9995 1.9995 1.9993 1.9992 1.9949
 1.3504 0.6579]
entropy correction =  -0.012962825254704274
cycle= 19 E= -482.296935690982  delta_E= -0.000364  |g|= 0.0135  |ddm|= 0.0338
HOMO:  0.061197307288782456 LUMO:  0.0684303312391959
Fermi energy:       0.0648595294
[2.     2.     2.     2.     2.     2.     2.     2.     2.     2.
 2.     2.     2.     2.     2.     2.     2.     2.     2.     2.
 2.     2.     2.     2.     2.     2.     2.     2.     2.     2.
 2.     2.     2.     1.9998 1.9996 1.9995 1.9995 1.9993 1.9992 1.995
 1.3507 0.6574]
entropy correction =  -0.012951982824523582
cycle= 20 E= -482.296785655115  delta_E= 0.00015  |g|= 0.0243  |ddm|= 0.0548
HOMO:  0.06124454865290905 LUMO:  0.06844552468517867
Fermi energy:       0.0648915484
[2.     2.     2.     2.     2.     2.     2.     2.     2.     2.
 2.     2.     2.     2.     2.     2.     2.     2.     2.     2.
 2.     2.     2.     2.     2.     2.     2.     2.     2.     2.
 2.     2.     2.     1.9998 1.9996 1.9995 1.9995 1.9993 1.9992 1.9949
 1.3493 0.6588]
entropy correction =  -0.012967051103931145
cycle= 21 E= -482.297009057678  delta_E= -0.000223  |g|= 0.00164  |ddm|= 0.0331
HOMO:  0.06122414634447419 LUMO:  0.06842042778176638
Fermi energy:       0.0648688810
[2.     2.     2.     2.     2.     2.     2.     2.     2.     2.
 2.     2.     2.     2.     2.     2.     2.     2.     2.     2.
 2.     2.     2.     2.     2.     2.     2.     2.     2.     2.
 2.     2.     2.     1.9998 1.9996 1.9995 1.9995 1.9993 1.9992 1.9949
 1.3491 0.6591]
entropy correction =  -0.012969079619893891
cycle= 22 E= -482.297010234357  delta_E= -1.18e-06  |g|= 0.000475  |ddm|= 0.0031
HOMO:  0.06121653587026137 LUMO:  0.06841620980161736
Fermi energy:       0.0648628034
[2.     2.     2.     2.     2.     2.     2.     2.     2.     2.
 2.     2.     2.     2.     2.     2.     2.     2.     2.     2.
 2.     2.     2.     2.     2.     2.     2.     2.     2.     2.
 2.     2.     2.     1.9998 1.9996 1.9995 1.9995 1.9993 1.9992 1.9949
 1.3493 0.6589]
entropy correction =  -0.012967028929420601
cycle= 23 E= -482.297010284206  delta_E= -4.98e-08  |g|= 0.000306  |ddm|= 0.000873
HOMO:  0.061212172486325926 LUMO:  0.06841131151266273
Fermi energy:       0.0648582839
[2.     2.     2.     2.     2.     2.     2.     2.     2.     2.
 2.     2.     2.     2.     2.     2.     2.     2.     2.     2.
 2.     2.     2.     2.     2.     2.     2.     2.     2.     2.
 2.     2.     2.     1.9998 1.9996 1.9995 1.9995 1.9993 1.9992 1.9949
 1.3493 0.6589]
entropy correction =  -0.01296784487414755
cycle= 24 E= -482.29701028794  delta_E= -3.73e-09  |g|= 0.000268  |ddm|= 0.000349
HOMO:  0.06121147137410312 LUMO:  0.06841074844278866
Fermi energy:       0.0648576491
[2.     2.     2.     2.     2.     2.     2.     2.     2.     2.
 2.     2.     2.     2.     2.     2.     2.     2.     2.     2.
 2.     2.     2.     2.     2.     2.     2.     2.     2.     2.
 2.     2.     2.     1.9998 1.9996 1.9995 1.9995 1.9993 1.9992 1.9949
 1.3493 0.6589]
entropy correction =  -0.012967784457162403
cycle= 25 E= -482.297010314489  delta_E= -2.65e-08  |g|= 2.89e-05  |ddm|= 0.000432
HOMO:  0.06121108351584124 LUMO:  0.06841037897369999
Fermi energy:       0.0648572733
[2.     2.     2.     2.     2.     2.     2.     2.     2.     2.
 2.     2.     2.     2.     2.     2.     2.     2.     2.     2.
 2.     2.     2.     2.     2.     2.     2.     2.     2.     2.
 2.     2.     2.     1.9998 1.9996 1.9995 1.9995 1.9993 1.9992 1.9949
 1.3493 0.6589]
entropy correction =  -0.012967794882219297
cycle= 26 E= -482.297010314761  delta_E= -2.72e-10  |g|= 6.77e-06  |ddm|= 3.23e-05
HOMO:  0.06121112483098475 LUMO:  0.06841041305897805
Fermi energy:       0.0648573123
[2.     2.     2.     2.     2.     2.     2.     2.     2.     2.
 2.     2.     2.     2.     2.     2.     2.     2.     2.     2.
 2.     2.     2.     2.     2.     2.     2.     2.     2.     2.
 2.     2.     2.     1.9998 1.9996 1.9995 1.9995 1.9993 1.9992 1.9949
 1.3493 0.6589]
entropy correction =  -0.012967804444711569
Extra cycle  E= -482.297010308465  delta_E= 6.3e-09  |g|= 0.000137  |ddm|= 0.000194
converged SCF energy = -482.297010308465
#INFO: **** input file is /tigress/xingz/pydmfet/examples/research/proj/Cu2/dmfet/Cu2.py ****
from pydmfet import locints, sdmfet, oep, tools, dfet_ao, proj_ao
from pydmfet.dfet_ao import dfet
from pydmfet.qcwrap.pyscf_rks_ao import rks_ao
from pyscf import gto, scf,dft, ao2mo,cc
import numpy as np
from pyscf.tools import molden, cubegen
import copy,time
from pydmfet.tools.sym import h_lattice_sym_tab
import time

t0 = (time.clock(), time.time())


bas = 'lanl2dz'
ecp = 'lanl2dz'
temp = 0.005


mol = gto.Mole()
mol.atom = open('Cu2.xyz').read()
mol.basis = bas
mol.ecp = ecp
mol.charge = -2
mol.build(max_memory = 16000, verbose=4)

mf = rks_ao(mol,smear_sigma = temp)
mf.xc = 'pbe,pbe'
mf.max_cycle = 50
mf.scf(dm0=None)


natoms = mol.natm
impAtom = np.zeros([natoms], dtype=int)
for i in range(2):
    impAtom[i] = 1

ghost_frag = 1-impAtom
ghost_env = 1-ghost_frag

mol_frag = gto.Mole()
mol_frag.atom = tools.add_ghost(mol.atom, ghost_frag)
mol_frag.basis = bas
mol_frag.ecp = ecp
mol_frag.charge = 4
mol_frag.build(max_memory = 16000,verbose = 4)

mol_env = gto.Mole()
mol_env.atom = tools.add_ghost(mol.atom, ghost_env)
mol_env.basis =  bas
mol_env.ecp = ecp
mol_env.charge = -6
mol_env.build(max_memory = 16000,verbose = 4)

Ne_frag = 34
Ne_env = 48

boundary_atoms = None
boundary_atoms2 =None

umat = None
umat = np.load("umat.npy")

params = oep.OEPparams(algorithm = 'leastsq', opt_method = 'L-BFGS-B', diffP_tol=1e-3, outer_maxit = 20)
params.options['ftol'] = 1e-9
params.options['gtol'] = 1e-3
params.options['maxiter'] = 50
params.options['svd_thresh'] = 1e-2

theDMFET = dfet.DFET(mf, mol_frag, mol_env,Ne_frag,Ne_env,\
                     boundary_atoms=boundary_atoms, boundary_atoms2=boundary_atoms2,umat = umat,\
                     oep_params=params, smear_sigma=temp, ecw_method = 'hf',mf_method = mf.xc, plot_dens=True,\
                     scf_max_cycle = 200)

umat = theDMFET.embedding_potential()

t1 = tools.timer("total calc time", t0)
#INFO: ******************** input file end ********************


System: uname_result(system='Linux', node='tiger-h25c2n24', release='3.10.0-957.27.2.el7.x86_64', version='#1 SMP Tue Jul 30 11:12:20 EDT 2019', machine='x86_64', processor='x86_64')  Threads 40
Python 3.7.0 (default, Jun 28 2018, 13:15:42) 
[GCC 7.2.0]
numpy 1.16.4  scipy 1.4.0.dev0+0f78e0f
Date: Sat Sep  7 20:06:56 2019
PySCF version 1.5
PySCF path  /home/xingz/.local/lib/python3.7/site-packages/pyscf

[CONFIG] conf_file None
[INPUT] verbose = 4
[INPUT] num. atoms = 8
[INPUT] num. electrons = 34
[INPUT] charge = 4
[INPUT] spin (= nelec alpha-beta = 2S) = 0
[INPUT] symmetry False subgroup None
[INPUT] Mole.unit = angstrom
[INPUT]  1 Cu    -0.441980000000   1.042360000000  -0.035730000000 AA   -0.835221152535   1.969774923202  -0.067519914431 Bohr
[INPUT]  2 Cu     2.942440000000   1.248890000000   0.035730000000 AA    5.560405737965   2.360060059708   0.067519914431 Bohr
[INPUT]  3 GHOST-Cl  -1.897990000000  -0.682570000000   0.075050000000 AA   -3.586681287163  -1.289870360844   0.141823945649 Bohr
[INPUT]  4 GHOST-Cl  -2.090880000000   2.577820000000  -0.212080000000 AA   -3.951190559331   4.871373798426  -0.400773116498 Bohr
[INPUT]  5 GHOST-Cl   1.158810000000   2.690810000000  -0.136080000000 AA    2.189833530407   5.084893953241  -0.257153931031 Bohr
[INPUT]  6 GHOST-Cl   1.341650000000  -0.399560000000   0.136080000000 AA    2.535351055023  -0.755058970331   0.257153931031 Bohr
[INPUT]  7 GHOST-Cl   4.398440000000   2.973820000000  -0.075050000000 AA    8.311846975332   5.619705343754  -0.141823945649 Bohr
[INPUT]  8 GHOST-Cl   4.591340000000  -0.286580000000   0.212080000000 AA    8.676375144761  -0.541557712778   0.400773116498 Bohr

nuclear repulsion = 56.3275059639967
number of shells = 38
number of NR pGTOs = 162
number of NR cGTOs = 92
basis = lanl2dz
ecp = lanl2dz
CPU time:       607.21
#INFO: **** input file is /tigress/xingz/pydmfet/examples/research/proj/Cu2/dmfet/Cu2.py ****
from pydmfet import locints, sdmfet, oep, tools, dfet_ao, proj_ao
from pydmfet.dfet_ao import dfet
from pydmfet.qcwrap.pyscf_rks_ao import rks_ao
from pyscf import gto, scf,dft, ao2mo,cc
import numpy as np
from pyscf.tools import molden, cubegen
import copy,time
from pydmfet.tools.sym import h_lattice_sym_tab
import time

t0 = (time.clock(), time.time())


bas = 'lanl2dz'
ecp = 'lanl2dz'
temp = 0.005


mol = gto.Mole()
mol.atom = open('Cu2.xyz').read()
mol.basis = bas
mol.ecp = ecp
mol.charge = -2
mol.build(max_memory = 16000, verbose=4)

mf = rks_ao(mol,smear_sigma = temp)
mf.xc = 'pbe,pbe'
mf.max_cycle = 50
mf.scf(dm0=None)


natoms = mol.natm
impAtom = np.zeros([natoms], dtype=int)
for i in range(2):
    impAtom[i] = 1

ghost_frag = 1-impAtom
ghost_env = 1-ghost_frag

mol_frag = gto.Mole()
mol_frag.atom = tools.add_ghost(mol.atom, ghost_frag)
mol_frag.basis = bas
mol_frag.ecp = ecp
mol_frag.charge = 4
mol_frag.build(max_memory = 16000,verbose = 4)

mol_env = gto.Mole()
mol_env.atom = tools.add_ghost(mol.atom, ghost_env)
mol_env.basis =  bas
mol_env.ecp = ecp
mol_env.charge = -6
mol_env.build(max_memory = 16000,verbose = 4)

Ne_frag = 34
Ne_env = 48

boundary_atoms = None
boundary_atoms2 =None

umat = None
umat = np.load("umat.npy")

params = oep.OEPparams(algorithm = 'leastsq', opt_method = 'L-BFGS-B', diffP_tol=1e-3, outer_maxit = 20)
params.options['ftol'] = 1e-9
params.options['gtol'] = 1e-3
params.options['maxiter'] = 50
params.options['svd_thresh'] = 1e-2

theDMFET = dfet.DFET(mf, mol_frag, mol_env,Ne_frag,Ne_env,\
                     boundary_atoms=boundary_atoms, boundary_atoms2=boundary_atoms2,umat = umat,\
                     oep_params=params, smear_sigma=temp, ecw_method = 'hf',mf_method = mf.xc, plot_dens=True,\
                     scf_max_cycle = 200)

umat = theDMFET.embedding_potential()

t1 = tools.timer("total calc time", t0)
#INFO: ******************** input file end ********************


System: uname_result(system='Linux', node='tiger-h25c2n24', release='3.10.0-957.27.2.el7.x86_64', version='#1 SMP Tue Jul 30 11:12:20 EDT 2019', machine='x86_64', processor='x86_64')  Threads 40
Python 3.7.0 (default, Jun 28 2018, 13:15:42) 
[GCC 7.2.0]
numpy 1.16.4  scipy 1.4.0.dev0+0f78e0f
Date: Sat Sep  7 20:06:56 2019
PySCF version 1.5
PySCF path  /home/xingz/.local/lib/python3.7/site-packages/pyscf

[CONFIG] conf_file None
[INPUT] verbose = 4
[INPUT] num. atoms = 8
[INPUT] num. electrons = 48
[INPUT] charge = -6
[INPUT] spin (= nelec alpha-beta = 2S) = 0
[INPUT] symmetry False subgroup None
[INPUT] Mole.unit = angstrom
[INPUT]  1 GHOST-Cu  -0.441980000000   1.042360000000  -0.035730000000 AA   -0.835221152535   1.969774923202  -0.067519914431 Bohr
[INPUT]  2 GHOST-Cu   2.942440000000   1.248890000000   0.035730000000 AA    5.560405737965   2.360060059708   0.067519914431 Bohr
[INPUT]  3 Cl    -1.897990000000  -0.682570000000   0.075050000000 AA   -3.586681287163  -1.289870360844   0.141823945649 Bohr
[INPUT]  4 Cl    -2.090880000000   2.577820000000  -0.212080000000 AA   -3.951190559331   4.871373798426  -0.400773116498 Bohr
[INPUT]  5 Cl     1.158810000000   2.690810000000  -0.136080000000 AA    2.189833530407   5.084893953241  -0.257153931031 Bohr
[INPUT]  6 Cl     1.341650000000  -0.399560000000   0.136080000000 AA    2.535351055023  -0.755058970331   0.257153931031 Bohr
[INPUT]  7 Cl     4.398440000000   2.973820000000  -0.075050000000 AA    8.311846975332   5.619705343754  -0.141823945649 Bohr
[INPUT]  8 Cl     4.591340000000  -0.286580000000   0.212080000000 AA    8.676375144761  -0.541557712778   0.400773116498 Bohr

nuclear repulsion = 93.9042733852809
number of shells = 38
number of NR pGTOs = 162
number of NR cGTOs = 92
basis = lanl2dz
ecp = lanl2dz
CPU time:       607.22


******** <class 'pydmfet.dfet_ao.scf.EmbedSCF'> flags ********
method = EmbedSCF-RKS-RHF
initial guess = minao
damping factor = 0
level shift factor = 0
DIIS = <class 'pyscf.scf.diis.CDIIS'>
DIIS start cycle = 1
DIIS space = 8
SCF tol = 1e-09
SCF gradient tol = None
max. SCF cycles = 200
direct_scf = False
chkfile to save SCF result = /tmp/tmpd_qmhekc
max_memory 16000 MB (current use 503 MB)
XC functionals = pbe,pbe
small_rho_cutoff = 1e-07
radial grids: 
    Treutler-Ahlrichs (JCP 102, 346 (M4)) radial grids
    
becke partition: Becke, JCP, 88, 2547 (1988)
pruning grids: <function nwchem_prune at 0x2b7fcad4b400>
grids dens level: 3
symmetrized grids: False
atomic radii adjust function: <function treutler_atomic_radii_adjust at 0x2b7fcad4b378>
Set gradient conv threshold to 3.16228e-05
tot grids = 120648
init E= -387.504249872823
HOMO: 0.19292452479998104 LUMO: 0.20150450948584894
mo_energy:
[-2.6628 -2.6469 -1.2691 -1.2682 -1.2675 -1.2668 -1.2619 -1.2611 -0.0764
 -0.0475 -0.0109  0.0117  0.0468  0.0677  0.069   0.1042  0.1929  0.2015
  0.2139  0.2188  0.2303  0.2893]
e_fermi =  0.1966900673719
[2.    2.    2.    2.    2.    2.    2.    2.    2.    2.    2.    2.
 2.    2.    2.    2.    1.36  0.553 0.062 0.024 0.002]
entropy correction =  -0.014274615024679513
cycle= 1 E= -326.426818282899  delta_E= 61.1  |g|= 12.4  |ddm|= 7.54
HOMO: -8.459801676467539 LUMO: -8.454357819765297
mo_energy:
[-12.817 -12.808 -11.17  -11.165 -11.156 -11.155 -11.145 -11.145  -8.488
  -8.487  -8.482  -8.481  -8.479  -8.478  -8.475  -8.471  -8.46   -8.454
  -3.119  -3.102  -2.49   -2.379]
e_fermi =  -8.455955020009407
[2.    2.    2.    2.    2.    2.    2.    2.    1.997 1.996 1.988 1.988
 1.98  1.977 1.953 1.912 1.367 0.842]
entropy correction =  -0.018135799033729947
cycle= 2 E= -384.918334865081  delta_E= -58.5  |g|= 4.16  |ddm|= 7.69
HOMO: -2.1038135883406777 LUMO: -2.092863341292411
mo_energy:
[-6.154 -6.076 -4.724 -4.723 -4.656 -4.647 -4.646 -4.584 -2.192 -2.182
 -2.171 -2.171 -2.158 -2.122 -2.111 -2.104 -2.104 -2.093 -1.463 -1.398
 -1.086 -1.046]
e_fermi =  -2.0956772233835923
[2.    2.    2.    2.    2.    2.    2.    2.    2.    2.    2.    2.
 2.    1.99  1.916 1.697 1.672 0.726]
entropy correction =  -0.01732905788396374
cycle= 3 E= -388.451683723039  delta_E= -3.53  |g|= 1.76  |ddm|= 3.44
HOMO: -1.0347833316274118 LUMO: -1.0114842240333923
mo_energy:
[-6.678 -5.268 -5.177 -5.17  -4.81  -3.385 -3.38  -3.377 -2.684 -2.672
 -2.669 -2.588 -2.579 -1.506 -1.112 -1.042 -1.035 -1.011 -1.006 -1.001
 -0.999 -0.998]
e_fermi =  -1.023854717750062
[2.    2.    2.    2.    2.    2.    2.    2.    2.    2.    2.    2.
 2.    2.    2.    1.951 1.798 0.155 0.05  0.019 0.015 0.012]
entropy correction =  -0.009666678827125522
cycle= 4 E= -360.593000397786  delta_E= 27.9  |g|= 11.8  |ddm|= 5.13
HOMO: -1.3807526123101037 LUMO: -1.3631102175985426
mo_energy:
[-6.304 -5.27  -4.902 -4.81  -4.803 -3.835 -3.832 -3.825 -2.335 -2.322
 -2.319 -2.239 -2.23  -1.391 -1.384 -1.382 -1.381 -1.363 -1.36  -1.13
 -0.966 -0.958]
e_fermi =  -1.3705386830916781
[2.    2.    2.    2.    2.    2.    2.    2.    2.    2.    2.    2.
 2.    1.966 1.861 1.816 1.77  0.369 0.218]
entropy correction =  -0.01824771738223396
cycle= 5 E= -385.030793201889  delta_E= -24.4  |g|= 4.01  |ddm|= 3.57
HOMO: -1.4266526460729376 LUMO: -1.4176369937980893
mo_energy:
[-6.058 -5.331 -4.661 -4.571 -4.564 -3.9   -3.896 -3.872 -2.111 -2.098
 -2.095 -2.018 -2.009 -1.431 -1.428 -1.427 -1.427 -1.418 -1.313 -1.131
 -0.939 -0.927]
e_fermi =  -1.418104296102631
[2.    2.    2.    2.    2.    2.    2.    2.    2.    2.    2.    2.
 2.    1.859 1.773 1.721 1.694 0.953]
entropy correction =  -0.021328337844331607
cycle= 6 E= -388.021342039956  delta_E= -2.99  |g|= 2.59  |ddm|= 1.74
HOMO: -1.4213139061515063 LUMO: -1.412769534256888
mo_energy:
[-5.757 -5.342 -4.362 -4.28  -4.273 -3.904 -3.9   -3.889 -1.843 -1.829
 -1.826 -1.756 -1.748 -1.434 -1.431 -1.43  -1.421 -1.413 -1.255 -1.109
 -0.905 -0.897]
e_fermi =  -1.4155632897251347
[2.    2.    2.    2.    2.    2.    2.    2.    2.    2.    2.    2.
 2.    1.955 1.913 1.885 1.519 0.728]
entropy correction =  -0.017131794163427798
cycle= 7 E= -388.441811278838  delta_E= -0.42  |g|= 2.06  |ddm|= 0.486
HOMO: -1.5839491040588058 LUMO: -1.573403980776955
mo_energy:
[-5.625 -5.525 -4.214 -4.159 -4.152 -4.104 -4.101 -4.029 -1.711 -1.7
 -1.698 -1.645 -1.637 -1.609 -1.599 -1.585 -1.584 -1.573 -1.213 -1.154
 -0.899 -0.878]
e_fermi =  -1.5764337508139963
[2.    2.    2.    2.    2.    2.    2.    2.    2.    2.    2.    2.
 2.    1.997 1.977 1.684 1.636 0.706]
entropy correction =  -0.016336570002247842
cycle= 8 E= -388.611943505297  delta_E= -0.17  |g|= 1.62  |ddm|= 1.64
HOMO: -1.5126978017624633 LUMO: -1.505370463332026
mo_energy:
[-5.772 -5.473 -4.326 -4.323 -4.315 -4.05  -4.016 -4.01  -1.822 -1.822
 -1.819 -1.808 -1.797 -1.563 -1.554 -1.552 -1.513 -1.505 -1.254 -1.13
 -0.912 -0.899]
e_fermi =  -1.509030281800268
[2.    2.    2.    2.    2.    2.    2.    2.    2.    2.    2.    2.
 2.    2.    2.    2.    1.351 0.65 ]
entropy correction =  -0.01263893399667117
cycle= 9 E= -388.53252928123  delta_E= 0.0794  |g|= 1.78  |ddm|= 1.84
HOMO: -1.562527678871569 LUMO: -1.5517878742175193
mo_energy:
[-5.66  -5.505 -4.213 -4.211 -4.209 -4.084 -4.082 -4.006 -1.721 -1.721
 -1.721 -1.704 -1.694 -1.59  -1.581 -1.563 -1.563 -1.552 -1.223 -1.144
 -0.902 -0.883]
e_fermi =  -1.5549258488504647
[2.    2.    2.    2.    2.    2.    2.    2.    2.    2.    2.    2.
 2.    1.998 1.988 1.676 1.641 0.696]
entropy correction =  -0.01602110071212283
cycle= 10 E= -388.602610619739  delta_E= -0.0701  |g|= 1.63  |ddm|=  1.8
HOMO: -1.5937048743199431 LUMO: -1.5901075306896795
mo_energy:
[-5.625 -5.531 -4.178 -4.176 -4.174 -4.099 -4.098 -4.054 -1.689 -1.688
 -1.687 -1.67  -1.661 -1.603 -1.596 -1.595 -1.594 -1.59  -1.213 -1.153
 -0.9   -0.879]
e_fermi =  -1.5876841585511121
[2.    2.    2.    2.    2.    2.    2.    2.    2.    2.    2.    2.
 2.    1.912 1.676 1.636 1.539 1.238]
entropy correction =  -0.023026896200222132
cycle= 11 E= -388.673425731612  delta_E= -0.0708  |g|= 1.59  |ddm|= 0.632
HOMO: -1.559331972394599 LUMO: -1.552638108757469
mo_energy:
[-5.618 -5.518 -4.178 -4.175 -4.156 -4.094 -4.067 -4.051 -1.68  -1.679
 -1.677 -1.673 -1.663 -1.612 -1.603 -1.594 -1.559 -1.553 -1.213 -1.149
 -0.899 -0.878]
e_fermi =  -1.5559782388964594
[2.    2.    2.    2.    2.    2.    2.    2.    2.    2.    2.    2.
 2.    2.    2.    1.999 1.323 0.678]
entropy correction =  -0.012856836962008317
cycle= 12 E= -388.656901373452  delta_E= 0.0165  |g|= 1.58  |ddm|= 1.21
HOMO: -1.5251399932089895 LUMO: -1.5164756931394494
mo_energy:
[-5.674 -5.462 -4.231 -4.225 -4.219 -4.02  -4.017 -4.011 -1.743 -1.739
 -1.736 -1.713 -1.705 -1.541 -1.539 -1.538 -1.525 -1.516 -1.228 -1.135
 -0.901 -0.885]
e_fermi =  -1.5200447993196797
[2.    2.    2.    2.    2.    2.    2.    2.    2.    2.    2.    2.
 2.    1.971 1.954 1.947 1.47  0.658]
entropy correction =  -0.01517590354574952
cycle= 13 E= -388.60302179597  delta_E= 0.0539  |g|= 1.71  |ddm|= 1.85
HOMO: -1.534677238145545 LUMO: -1.5260976739653778
mo_energy:
[-5.667 -5.478 -4.223 -4.217 -4.212 -4.035 -4.031 -4.029 -1.735 -1.731
 -1.728 -1.706 -1.698 -1.56  -1.556 -1.555 -1.535 -1.526 -1.224 -1.139
 -0.901 -0.883]
e_fermi =  -1.530206460536595
[2.    2.    2.    2.    2.    2.    2.    2.    2.    2.    2.    2.
 2.    1.995 1.988 1.987 1.419 0.611]
entropy correction =  -0.013118348097281515
cycle= 14 E= -388.60435363158  delta_E= -0.00133  |g|= 1.69  |ddm|= 0.0817
HOMO: -1.5213945101663138 LUMO: -1.5132347484936581
mo_energy:
[-5.67  -5.467 -4.227 -4.221 -4.216 -4.031 -4.017 -4.016 -1.739 -1.735
 -1.732 -1.709 -1.701 -1.555 -1.548 -1.547 -1.521 -1.513 -1.226 -1.137
 -0.901 -0.884]
e_fermi =  -1.5172518764385945
[2.    2.    2.    2.    2.    2.    2.    2.    2.    2.    2.    2.
 2.    1.999 1.996 1.995 1.392 0.619]
entropy correction =  -0.012710227781299542
cycle= 15 E= -388.596326511284  delta_E= 0.00803  |g|= 1.71  |ddm|= 0.0329
HOMO: -1.5203786501115644 LUMO: -1.5127229112120124
mo_energy:
[-5.672 -5.466 -4.228 -4.222 -4.218 -4.03  -4.017 -4.013 -1.74  -1.735
 -1.734 -1.711 -1.703 -1.554 -1.547 -1.546 -1.52  -1.513 -1.226 -1.137
 -0.901 -0.884]
e_fermi =  -1.5164904943162878
[2.    2.    2.    2.    2.    2.    2.    2.    2.    2.    2.    2.
 2.    1.999 1.996 1.995 1.37  0.64 ]
entropy correction =  -0.012874575947832922
cycle= 16 E= -388.591375843335  delta_E= 0.00495  |g|= 1.72  |ddm|= 0.103
HOMO: -1.5255159544941383 LUMO: -1.5184035106061515
mo_energy:
[-5.684 -5.458 -4.24  -4.234 -4.229 -4.022 -4.018 -3.997 -1.751 -1.746
 -1.745 -1.722 -1.714 -1.535 -1.534 -1.532 -1.526 -1.518 -1.23  -1.135
 -0.902 -0.886]
e_fermi =  -1.519832862830432
[2.    2.    2.    2.    2.    2.    2.    2.    2.    2.    2.    2.
 2.    1.916 1.882 1.829 1.514 0.858]
entropy correction =  -0.019267699291520828
cycle= 17 E= -388.59767937589  delta_E= -0.0063  |g|= 1.75  |ddm|= 0.564
HOMO: -1.476665804332271 LUMO: -1.4718020840733115
mo_energy:
[-5.672 -5.416 -4.228 -4.226 -4.216 -3.983 -3.97  -3.961 -1.74  -1.738
 -1.732 -1.714 -1.705 -1.514 -1.506 -1.502 -1.477 -1.472 -1.229 -1.129
 -0.9   -0.885]
e_fermi =  -1.4741735597303385
[2.    2.    2.    2.    2.    2.    2.    2.    2.    2.    2.    2.
 2.    1.999 1.997 1.993 1.244 0.767]
entropy correction =  -0.013685645679948922
cycle= 18 E= -388.549123725176  delta_E= 0.0486  |g|= 1.83  |ddm|= 0.625
HOMO: -1.4887743766746369 LUMO: -1.4842130465744692
mo_energy:
[-5.672 -5.428 -4.226 -4.223 -4.22  -3.996 -3.982 -3.971 -1.737 -1.735
 -1.733 -1.715 -1.706 -1.523 -1.515 -1.512 -1.489 -1.484 -1.227 -1.132
 -0.9   -0.885]
e_fermi =  -1.4863901274491913
[2.    2.    2.    2.    2.    2.    2.    2.    2.    2.    2.    2.
 2.    1.999 1.994 1.988 1.234 0.786]
entropy correction =  -0.013990902287571222
cycle= 19 E= -388.554463315139  delta_E= -0.00534  |g|= 1.81  |ddm|= 0.277
HOMO: -1.5093159847148419 LUMO: -1.5042474689610645
mo_energy:
[-5.662 -5.449 -4.243 -4.238 -4.155 -4.012 -4.011 -3.987 -1.739 -1.729
 -1.709 -1.705 -1.692 -1.54  -1.537 -1.525 -1.509 -1.504 -1.225 -1.138
 -0.901 -0.885]
e_fermi =  -1.506492668495695
[2.    2.    2.    2.    2.    2.    2.    2.    2.    2.    2.    2.
 2.    1.997 1.995 1.953 1.275 0.779]
entropy correction =  -0.014610595450377482
cycle= 20 E= -388.579007343151  delta_E= -0.0245  |g|= 1.76  |ddm|= 0.241
HOMO: -1.0031392783983994 LUMO: -0.9972897800506842
mo_energy:
[-6.218 -4.852 -4.825 -4.791 -4.617 -3.401 -3.391 -3.383 -2.298 -2.269
 -2.203 -2.166 -2.133 -1.397 -1.058 -1.018 -1.003 -0.997 -0.989 -0.98
 -0.979 -0.936]
e_fermi =  -1.001024389880534
[2.    2.    2.    2.    2.    2.    2.    2.    2.    2.    2.    2.
 2.    2.    2.    1.932 1.208 0.643 0.163 0.029 0.024]
entropy correction =  -0.01870520146953886
cycle= 21 E= -373.15608468776  delta_E= 15.4  |g|= 8.76  |ddm|= 4.17
HOMO: -1.2655626485270512 LUMO: -1.251668140744715
mo_energy:
[-6.062 -5.149 -4.662 -4.631 -4.515 -3.712 -3.708 -3.706 -2.122 -2.097
 -2.065 -2.047 -2.025 -1.333 -1.277 -1.268 -1.266 -1.252 -1.248 -1.07
 -0.944 -0.935]
e_fermi =  -1.2581228683996057
[2.    2.    2.    2.    2.    2.    2.    2.    2.    2.    2.    2.
 2.    2.    1.954 1.748 1.632 0.431 0.235]
entropy correction =  -0.018490318478499274
cycle= 22 E= -382.735420595697  delta_E= -9.58  |g|= 4.83  |ddm|= 1.81
HOMO: -1.522746717553688 LUMO: -1.5213614027233107
mo_energy:
[-5.806 -5.449 -4.402 -4.364 -4.29  -4.018 -4.015 -3.978 -1.868 -1.851
 -1.839 -1.817 -1.808 -1.53  -1.526 -1.525 -1.523 -1.521 -1.247 -1.142
 -0.915 -0.893]
e_fermi =  -1.5175402059671723
[2.    2.    2.    2.    2.    2.    2.    2.    2.    2.    2.    2.
 2.    1.842 1.681 1.635 1.478 1.365]
entropy correction =  -0.023900856478670872
cycle= 23 E= -388.443322696675  delta_E= -5.71  |g|=    2  |ddm|= 2.57
HOMO: -1.5389198269808462 LUMO: -1.534206970860014
mo_energy:
[-5.584 -5.481 -4.137 -4.137 -4.135 -4.047 -4.037 -4.024 -1.658 -1.654
 -1.653 -1.636 -1.628 -1.573 -1.567 -1.561 -1.539 -1.534 -1.208 -1.147
 -0.896 -0.875]
e_fermi =  -1.5364586553707829
[2.    2.    2.    2.    2.    2.    2.    2.    2.    2.    2.    2.
 2.    1.999 1.995 1.986 1.241 0.779]
entropy correction =  -0.013954868955902755
cycle= 24 E= -388.646915429357  delta_E= -0.204  |g|= 1.64  |ddm|= 1.63
HOMO: -1.4600121495905547 LUMO: -1.4523602357103997
mo_energy:
[-5.757 -5.387 -4.34  -4.326 -4.254 -3.948 -3.944 -3.934 -1.824 -1.813
 -1.798 -1.791 -1.781 -1.474 -1.471 -1.47  -1.46  -1.452 -1.255 -1.115
 -0.91  -0.901]
e_fermi =  -1.4549398963058595
[2.    2.    2.    2.    2.    2.    2.    2.    2.    2.    2.    2.
 2.    1.96  1.921 1.904 1.468 0.748]
entropy correction =  -0.016980962040322473
cycle= 25 E= -388.495830435534  delta_E= 0.151  |g|= 1.92  |ddm|= 1.81
HOMO: -1.481390065217344 LUMO: -1.4734968663617247
mo_energy:
[-5.731 -5.409 -4.318 -4.308 -4.213 -3.97  -3.967 -3.953 -1.807 -1.797
 -1.768 -1.763 -1.747 -1.492 -1.49  -1.489 -1.481 -1.473 -1.246 -1.121
 -0.908 -0.897]
e_fermi =  -1.4756080065558477
[2.    2.    2.    2.    2.    2.    2.    2.    2.    2.    2.    2.
 2.    1.929 1.889 1.869 1.521 0.792]
entropy correction =  -0.01831692693249138
cycle= 26 E= -388.537633750444  delta_E= -0.0418  |g|= 1.86  |ddm|= 0.0856
HOMO: -1.5482879272631254 LUMO: -1.539991818325232
mo_energy:
[-5.666 -5.482 -4.25  -4.243 -4.155 -4.043 -4.04  -4.024 -1.743 -1.733
 -1.71  -1.706 -1.692 -1.557 -1.556 -1.555 -1.548 -1.54  -1.225 -1.141
 -0.903 -0.885]
e_fermi =  -1.5421243084706022
[2.    2.    2.    2.    2.    2.    2.    2.    2.    2.    2.    2.
 2.    1.912 1.884 1.866 1.549 0.79 ]
entropy correction =  -0.01853438297668137
cycle= 27 E= -388.627203304982  delta_E= -0.0896  |g|= 1.68  |ddm|= 0.0943
HOMO: -1.5616811505631145 LUMO: -1.5532367029083978
mo_energy:
[-5.623 -5.496 -4.21  -4.194 -4.118 -4.057 -4.054 -4.038 -1.703 -1.694
 -1.675 -1.666 -1.656 -1.572 -1.57  -1.569 -1.562 -1.553 -1.216 -1.146
 -0.9   -0.88 ]
e_fermi =  -1.5556168786524758
[2.    2.    2.    2.    2.    2.    2.    2.    2.    2.    2.    2.
 2.    1.924 1.89  1.878 1.542 0.766]
entropy correction =  -0.01808215974844752
cycle= 28 E= -388.659968566977  delta_E= -0.0328  |g|= 1.63  |ddm|= 0.0576
HOMO: -1.6132433444569128 LUMO: -1.6047102083628413
mo_energy:
[-5.574 -5.559 -4.151 -4.143 -4.119 -4.114 -4.107 -4.077 -1.65  -1.642
 -1.637 -1.634 -1.63  -1.628 -1.623 -1.615 -1.613 -1.605 -1.208 -1.154
 -0.899 -0.877]
e_fermi =  -1.6063556973890392
[2.    2.    2.    2.    2.    2.    2.    2.    2.    1.998 1.995 1.992
 1.983 1.973 1.926 1.699 1.597 0.837]
entropy correction =  -0.019362470125496665
cycle= 29 E= -389.242876870279  delta_E= -0.583  |g|= 0.893  |ddm|= 0.411
HOMO: -1.6107914778980037 LUMO: -1.605035272328555
mo_energy:
[-5.557 -5.544 -4.121 -4.118 -4.114 -4.11  -4.083 -4.077 -1.623 -1.62
 -1.618 -1.618 -1.616 -1.615 -1.613 -1.612 -1.611 -1.605 -1.206 -1.152
 -0.897 -0.876]
e_fermi =  -1.602177048179105
[2.    2.    2.    2.    2.    2.    2.    2.    1.968 1.941 1.921 1.915
 1.881 1.865 1.788 1.744 1.697 1.278]
entropy correction =  -0.028271840361206266
cycle= 30 E= -389.396634349185  delta_E= -0.154  |g|= 0.658  |ddm|= 0.805
HOMO: -1.592995666913845 LUMO: -1.5860565146002255
mo_energy:
[-5.548 -5.536 -4.121 -4.109 -4.105 -4.101 -4.073 -4.064 -1.633 -1.629
 -1.616 -1.611 -1.605 -1.603 -1.603 -1.6   -1.593 -1.586 -1.205 -1.151
 -0.896 -0.875]
e_fermi =  -1.5872836419151364
[2.    2.    2.    2.    2.    2.    2.    2.    2.    2.    1.994 1.984
 1.946 1.922 1.912 1.849 1.516 0.878]
entropy correction =  -0.02047578133603411
cycle= 31 E= -389.236321113087  delta_E= 0.16  |g|= 0.889  |ddm|= 0.953
HOMO: -1.5977875838360123 LUMO: -1.5903419407403836
mo_energy:
[-5.552 -5.54  -4.117 -4.115 -4.112 -4.101 -4.089 -4.062 -1.633 -1.628
 -1.621 -1.619 -1.612 -1.607 -1.605 -1.6   -1.598 -1.59  -1.206 -1.151
 -0.896 -0.875]
e_fermi =  -1.5909553932007598
[2.    2.    2.    2.    2.    2.    2.    2.    2.    1.999 1.995 1.993
 1.97  1.921 1.877 1.713 1.594 0.939]
entropy correction =  -0.02129503905082702
cycle= 32 E= -389.359194483864  delta_E= -0.123  |g|= 0.69  |ddm|= 0.391
HOMO: -1.5538951740083011 LUMO: -1.5459573987827318
mo_energy:
[-5.565 -5.497 -4.146 -4.13  -4.077 -4.06  -4.053 -4.041 -1.644 -1.639
 -1.628 -1.62  -1.615 -1.585 -1.581 -1.575 -1.554 -1.546 -1.205 -1.147
 -0.895 -0.874]
e_fermi =  -1.5498185048212008
[2.    2.    2.    2.    2.    2.    2.    2.    2.    2.    2.    2.
 2.    1.998 1.996 1.987 1.386 0.632]
entropy correction =  -0.013003615240453688
cycle= 33 E= -388.676738448368  delta_E= 0.682  |g|= 1.58  |ddm|= 1.65
HOMO: -1.5981394946682903 LUMO: -1.5919748375349418
mo_energy:
[-5.552 -5.536 -4.115 -4.112 -4.104 -4.094 -4.082 -4.075 -1.617 -1.616
 -1.616 -1.614 -1.613 -1.611 -1.609 -1.607 -1.598 -1.592 -1.205 -1.151
 -0.896 -0.875]
e_fermi =  -1.5930249941358299
[2.    2.    2.    2.    2.    2.    2.    2.    1.983 1.982 1.979 1.973
 1.967 1.947 1.914 1.889 1.471 0.895]
entropy correction =  -0.020951646341459147
cycle= 34 E= -389.019346431892  delta_E= -0.343  |g|= 1.19  |ddm|= 1.63
HOMO: -1.593581160072667 LUMO: -1.587351894269856
mo_energy:
[-5.552 -5.533 -4.115 -4.113 -4.102 -4.089 -4.083 -4.074 -1.617 -1.617
 -1.617 -1.615 -1.613 -1.609 -1.609 -1.607 -1.594 -1.587 -1.205 -1.151
 -0.896 -0.875]
e_fermi =  -1.5894041584396235
[2.    2.    2.    2.    2.    2.    2.    2.    1.993 1.993 1.992 1.989
 1.982 1.964 1.957 1.938 1.395 0.798]
entropy correction =  -0.017774139500544607
cycle= 35 E= -388.848797123859  delta_E= 0.171  |g|= 1.36  |ddm|= 0.135
HOMO: -1.6001085598639766 LUMO: -1.591366784674342
mo_energy:
[-5.56  -5.534 -4.13  -4.112 -4.098 -4.095 -4.092 -4.071 -1.638 -1.634
 -1.628 -1.611 -1.605 -1.604 -1.604 -1.603 -1.6   -1.591 -1.206 -1.151
 -0.896 -0.875]
e_fermi =  -1.591559409561951
[2.    2.    2.    2.    2.    2.    2.    2.    2.    2.    1.999 1.959
 1.872 1.847 1.835 1.815 1.694 0.981]
entropy correction =  -0.02331614405351587
cycle= 36 E= -389.011382550765  delta_E= -0.163  |g|= 1.22  |ddm|= 1.39
HOMO: -1.6032782346018106 LUMO: -1.5947955756013386
mo_energy:
[-5.55  -5.537 -4.111 -4.106 -4.102 -4.099 -4.085 -4.08  -1.618 -1.617
 -1.615 -1.612 -1.611 -1.61  -1.609 -1.604 -1.603 -1.595 -1.205 -1.151
 -0.896 -0.875]
e_fermi =  -1.5948398847136878
[2.    2.    2.    2.    2.    2.    2.    2.    1.98  1.976 1.965 1.935
 1.921 1.912 1.889 1.737 1.688 0.996]
entropy correction =  -0.024265028494237232
cycle= 37 E= -389.295341908265  delta_E= -0.284  |g|= 0.837  |ddm|= 0.23
HOMO: -1.590292525501337 LUMO: -1.5863686920983444
mo_energy:
[-5.533 -5.519 -4.102 -4.098 -4.09  -4.086 -4.052 -4.051 -1.606 -1.599
 -1.596 -1.595 -1.594 -1.593 -1.591 -1.591 -1.59  -1.586 -1.204 -1.148
 -0.895 -0.874]
e_fermi =  -1.5816020090312393
[2.    2.    2.    2.    2.    2.    2.    2.    1.986 1.94  1.901 1.877
 1.857 1.819 1.749 1.726 1.701 1.444]
entropy correction =  -0.02955186111111374
cycle= 38 E= -389.42356675202  delta_E= -0.128  |g|=  0.6  |ddm|= 0.957
HOMO: -1.5939335474366285 LUMO: -1.5859450171487577
mo_energy:
[-5.541 -5.527 -4.106 -4.103 -4.093 -4.086 -4.073 -4.067 -1.609 -1.606
 -1.606 -1.605 -1.604 -1.603 -1.601 -1.6   -1.594 -1.586 -1.204 -1.15
 -0.895 -0.874]
e_fermi =  -1.586756590250051
[2.    2.    2.    2.    2.    2.    2.    2.    1.977 1.961 1.955 1.953
 1.942 1.92  1.886 1.871 1.615 0.919]
entropy correction =  -0.02313167558029442
cycle= 39 E= -389.193684995018  delta_E= 0.23  |g|= 0.982  |ddm|= 0.694
HOMO: -1.5957804407644542 LUMO: -1.5883005343445726
mo_energy:
[-5.542 -5.528 -4.109 -4.106 -4.093 -4.09  -4.069 -4.064 -1.613 -1.607
 -1.605 -1.604 -1.603 -1.603 -1.601 -1.601 -1.596 -1.588 -1.204 -1.15
 -0.896 -0.874]
e_fermi =  -1.5879704435854922
[2.    2.    2.    2.    2.    2.    2.    2.    1.985 1.953 1.929 1.914
 1.913 1.899 1.865 1.855 1.653 1.033]
entropy correction =  -0.02524600522859924
cycle= 40 E= -389.233592347038  delta_E= -0.0399  |g|= 0.933  |ddm|= 0.34
HOMO: -1.5973563596669498 LUMO: -1.5899082567894645
mo_energy:
[-5.539 -5.527 -4.104 -4.101 -4.095 -4.091 -4.067 -4.064 -1.608 -1.604
 -1.603 -1.603 -1.602 -1.6   -1.6   -1.599 -1.597 -1.59  -1.204 -1.15
 -0.895 -0.874]
e_fermi =  -1.5878643749348786
[2.    2.    2.    2.    2.    2.    2.    2.    1.961 1.922 1.909 1.9
 1.89  1.846 1.835 1.796 1.739 1.202]
entropy correction =  -0.028023959826074796
cycle= 41 E= -389.436065122725  delta_E= -0.202  |g|= 0.576  |ddm|= 0.219
HOMO: -1.6011310243149233 LUMO: -1.5976100066544263
mo_energy:
[-5.545 -5.534 -4.106 -4.105 -4.102 -4.101 -4.072 -4.07  -1.61  -1.61
 -1.608 -1.607 -1.607 -1.606 -1.606 -1.605 -1.601 -1.598 -1.205 -1.15
 -0.896 -0.875]
e_fermi =  -1.5936171096856433
[2.    2.    2.    2.    2.    2.    2.    2.    1.931 1.921 1.888 1.876
 1.862 1.855 1.837 1.816 1.636 1.379]
entropy correction =  -0.029608791130925953
cycle= 42 E= -389.552571615794  delta_E= -0.117  |g|= 0.156  |ddm|= 0.539
HOMO: -1.5983039595954165 LUMO: -1.5947916851015342
mo_energy:
[-5.542 -5.531 -4.103 -4.101 -4.099 -4.097 -4.072 -4.07  -1.607 -1.606
 -1.606 -1.606 -1.605 -1.605 -1.604 -1.604 -1.598 -1.595 -1.205 -1.15
 -0.896 -0.874]
e_fermi =  -1.5913780473463588
[2.    2.    2.    2.    2.    2.    2.    2.    1.923 1.901 1.899 1.89
 1.876 1.866 1.861 1.856 1.6   1.329]
entropy correction =  -0.029017680560859214
cycle= 43 E= -389.561500218266  delta_E= -0.00893  |g|= 0.0534  |ddm|= 0.24
HOMO: -1.598196430872656 LUMO: -1.5947861694256715
mo_energy:
[-5.542 -5.531 -4.103 -4.1   -4.099 -4.097 -4.07  -4.069 -1.606 -1.606
 -1.605 -1.605 -1.604 -1.604 -1.604 -1.603 -1.598 -1.595 -1.205 -1.15
 -0.896 -0.874]
e_fermi =  -1.5910411312767176
[2.    2.    2.    2.    2.    2.    2.    2.    1.909 1.897 1.893 1.882
 1.873 1.869 1.862 1.843 1.614 1.358]
entropy correction =  -0.029436023796183226
cycle= 44 E= -389.562932800573  delta_E= -0.00143  |g|= 0.00861  |ddm|= 0.118
HOMO: -1.5986987779633204 LUMO: -1.5952504969911478
mo_energy:
[-5.542 -5.531 -4.103 -4.101 -4.1   -4.098 -4.07  -4.068 -1.606 -1.606
 -1.605 -1.605 -1.605 -1.604 -1.604 -1.603 -1.599 -1.595 -1.205 -1.15
 -0.896 -0.874]
e_fermi =  -1.5912722291737063
[2.    2.    2.    2.    2.    2.    2.    2.    1.902 1.89  1.884 1.879
 1.871 1.866 1.862 1.838 1.631 1.378]
entropy correction =  -0.029748432464103615
cycle= 45 E= -389.562871257822  delta_E= 6.15e-05  |g|= 0.0249  |ddm|= 0.0604
HOMO: -1.5988587216308678 LUMO: -1.5953357997499849
mo_energy:
[-5.542 -5.531 -4.103 -4.101 -4.1   -4.098 -4.071 -4.068 -1.606 -1.606
 -1.605 -1.605 -1.605 -1.605 -1.604 -1.604 -1.599 -1.595 -1.205 -1.15
 -0.896 -0.874]
e_fermi =  -1.5914646864969304
[2.    2.    2.    2.    2.    2.    2.    2.    1.903 1.893 1.883 1.879
 1.873 1.871 1.862 1.837 1.629 1.369]
entropy correction =  -0.029644975017986044
cycle= 46 E= -389.562760473763  delta_E= 0.000111  |g|= 0.0264  |ddm|= 0.0378
HOMO: -1.5988641717617251 LUMO: -1.5954208204764326
mo_energy:
[-5.542 -5.531 -4.103 -4.101 -4.1   -4.098 -4.07  -4.069 -1.606 -1.606
 -1.605 -1.605 -1.605 -1.605 -1.604 -1.604 -1.599 -1.595 -1.205 -1.15
 -0.896 -0.874]
e_fermi =  -1.5914598459071225
[2.    2.    2.    2.    2.    2.    2.    2.    1.902 1.891 1.884 1.879
 1.872 1.867 1.861 1.838 1.629 1.377]
entropy correction =  -0.029726990398873915
cycle= 47 E= -389.563074685559  delta_E= -0.000314  |g|= 0.00853  |ddm|= 0.0478
HOMO: -1.5986245351327295 LUMO: -1.5951897221972513
mo_energy:
[-5.542 -5.531 -4.103 -4.101 -4.1   -4.098 -4.07  -4.069 -1.606 -1.606
 -1.605 -1.605 -1.605 -1.605 -1.604 -1.604 -1.599 -1.595 -1.205 -1.15
 -0.896 -0.874]
e_fermi =  -1.5912733541810427
[2.    2.    2.    2.    2.    2.    2.    2.    1.903 1.891 1.885 1.879
 1.87  1.869 1.863 1.841 1.626 1.373]
entropy correction =  -0.02967341621034127
cycle= 48 E= -389.563102002596  delta_E= -2.73e-05  |g|= 0.0041  |ddm|= 0.0121
HOMO: -1.5986029616929118 LUMO: -1.5951681332071308
mo_energy:
[-5.542 -5.531 -4.103 -4.101 -4.1   -4.098 -4.07  -4.069 -1.606 -1.605
 -1.605 -1.605 -1.605 -1.605 -1.604 -1.604 -1.599 -1.595 -1.205 -1.15
 -0.896 -0.874]
e_fermi =  -1.5912562535934112
[2.    2.    2.    2.    2.    2.    2.    2.    1.903 1.89  1.885 1.879
 1.871 1.87  1.863 1.841 1.626 1.372]
entropy correction =  -0.029668391523167865
cycle= 49 E= -389.563107003213  delta_E= -5e-06  |g|= 0.00224  |ddm|= 0.00376
HOMO: -1.5986135650927835 LUMO: -1.5951782432614146
mo_energy:
[-5.542 -5.531 -4.103 -4.101 -4.1   -4.098 -4.07  -4.069 -1.606 -1.606
 -1.605 -1.605 -1.605 -1.605 -1.604 -1.604 -1.599 -1.595 -1.205 -1.15
 -0.896 -0.874]
e_fermi =  -1.5912669341097574
[2.    2.    2.    2.    2.    2.    2.    2.    1.903 1.891 1.885 1.879
 1.871 1.87  1.863 1.841 1.626 1.372]
entropy correction =  -0.029668076077863616
cycle= 50 E= -389.563108863023  delta_E= -1.86e-06  |g|= 0.000309  |ddm|= 0.00163
HOMO: -1.5986187555275224 LUMO: -1.5951832409813242
mo_energy:
[-5.542 -5.531 -4.103 -4.101 -4.1   -4.098 -4.07  -4.069 -1.606 -1.606
 -1.605 -1.605 -1.605 -1.605 -1.604 -1.604 -1.599 -1.595 -1.205 -1.15
 -0.896 -0.874]
e_fermi =  -1.591269334559555
[2.    2.    2.    2.    2.    2.    2.    2.    1.903 1.89  1.885 1.879
 1.871 1.869 1.863 1.841 1.626 1.373]
entropy correction =  -0.02967110436092872
cycle= 51 E= -389.563108923618  delta_E= -6.06e-08  |g|= 4.62e-05  |ddm|= 0.000716
HOMO: -1.5986164334812638 LUMO: -1.5951809851713767
mo_energy:
[-5.542 -5.531 -4.103 -4.101 -4.1   -4.098 -4.07  -4.069 -1.606 -1.606
 -1.605 -1.605 -1.605 -1.605 -1.604 -1.604 -1.599 -1.595 -1.205 -1.15
 -0.896 -0.874]
e_fermi =  -1.5912680348825643
[2.    2.    2.    2.    2.    2.    2.    2.    1.903 1.89  1.885 1.879
 1.871 1.87  1.863 1.841 1.626 1.372]
entropy correction =  -0.029669980380478134
cycle= 52 E= -389.563108924226  delta_E= -6.09e-10  |g|= 1.53e-05  |ddm|= 0.000159
HOMO: -1.5986188951231792 LUMO: -1.5951831558677396
mo_energy:
[-5.542 -5.531 -4.103 -4.101 -4.1   -4.098 -4.07  -4.069 -1.606 -1.606
 -1.605 -1.605 -1.605 -1.605 -1.604 -1.604 -1.599 -1.595 -1.205 -1.15
 -0.896 -0.874]
e_fermi =  -1.5912685668005346
[2.    2.    2.    2.    2.    2.    2.    2.    1.903 1.89  1.885 1.879
 1.871 1.869 1.863 1.841 1.626 1.373]
entropy correction =  -0.029671995953685304
Extra cycle  E= -389.563108407324  delta_E= 5.17e-07  |g|= 0.00118  |ddm|= 0.00066
converged SCF energy = -389.563108407324


******** <class 'pydmfet.dfet_ao.scf.EmbedSCF'> flags ********
method = EmbedSCF-RKS-RHF
initial guess = minao
damping factor = 0
level shift factor = 0
DIIS = <class 'pyscf.scf.diis.CDIIS'>
DIIS start cycle = 1
DIIS space = 8
SCF tol = 1e-09
SCF gradient tol = None
max. SCF cycles = 200
direct_scf = False
chkfile to save SCF result = /tmp/tmp4_ptwlzk
max_memory 16000 MB (current use 2016 MB)
XC functionals = pbe,pbe
small_rho_cutoff = 1e-07
radial grids: 
    Treutler-Ahlrichs (JCP 102, 346 (M4)) radial grids
    
becke partition: Becke, JCP, 88, 2547 (1988)
pruning grids: <function nwchem_prune at 0x2b7fcad4b400>
grids dens level: 3
symmetrized grids: False
atomic radii adjust function: <function treutler_atomic_radii_adjust at 0x2b7fcad4b378>
Set gradient conv threshold to 3.16228e-05
tot grids = 139880
init E= -78.9684210683066
HOMO: 0.16473509179008752 LUMO: 0.1850583010507571
mo_energy:
[-0.327 -0.313 -0.306 -0.299 -0.294 -0.273 -0.058 -0.048 -0.047 -0.034
 -0.008 -0.005  0.005  0.012  0.013  0.04   0.044  0.048  0.054  0.059
  0.062  0.069  0.098  0.165  0.185  0.22   0.269  0.274  0.275]
e_fermi =  0.1748934574307386
[2.    2.    2.    2.    2.    2.    2.    2.    2.    2.    2.    2.
 2.    2.    2.    2.    2.    2.    2.    2.    2.    2.    2.    1.768
 0.232]
entropy correction =  -0.007184743426771944
cycle= 1 E= -86.313019421421  delta_E= -7.34  |g|= 2.55  |ddm|=   10
HOMO: 0.8031194676851373 LUMO: 0.8434169242953681
mo_energy:
[-0.139 -0.138 -0.133 -0.128  0.259  0.272  0.332  0.334  0.335  0.336
  0.342  0.342  0.348  0.349  0.41   0.41   0.425  0.494  0.718  0.723
  0.729  0.742  0.749  0.803  0.843  0.871  0.908  0.909  0.929]
e_fermi =  0.8232586920431634
[2.    2.    2.    2.    2.    2.    2.    2.    2.    2.    2.    2.
 2.    2.    2.    2.    2.    2.    2.    2.    2.    2.    2.    1.965
 0.035]
entropy correction =  -0.001767366912712172
cycle= 2 E= -87.1594802319915  delta_E= -0.846  |g|= 1.97  |ddm|= 6.11
HOMO: 0.9030352617202757 LUMO: 0.9045560526857198
mo_energy:
[0.23  0.233 0.24  0.243 0.423 0.437 0.651 0.651 0.653 0.657 0.666 0.668
 0.671 0.671 0.7   0.711 0.716 0.743 0.83  0.849 0.851 0.868 0.882 0.903
 0.905 0.911 0.917 0.93  0.968]
e_fermi =  0.9020272712357948
[2.    2.    2.    2.    2.    2.    2.    2.    2.    2.    2.    2.
 2.    2.    2.    2.    2.    2.    2.    2.    2.    1.998 1.962 0.9
 0.752 0.288 0.094 0.007]
entropy correction =  -0.02078023949776811
cycle= 3 E= -88.3426686089845  delta_E= -1.18  |g|= 0.305  |ddm|= 2.65
HOMO: 0.8318543153157868 LUMO: 0.8685004675276227
mo_energy:
[0.207 0.209 0.216 0.22  0.298 0.315 0.623 0.624 0.625 0.63  0.638 0.639
 0.646 0.647 0.655 0.658 0.665 0.669 0.714 0.727 0.73  0.749 0.754 0.832
 0.869 0.874 0.875 0.885 0.948]
e_fermi =  0.8489340055586013
[2.000e+00 2.000e+00 2.000e+00 2.000e+00 2.000e+00 2.000e+00 2.000e+00
 2.000e+00 2.000e+00 2.000e+00 2.000e+00 2.000e+00 2.000e+00 2.000e+00
 2.000e+00 2.000e+00 2.000e+00 2.000e+00 2.000e+00 2.000e+00 2.000e+00
 2.000e+00 2.000e+00 1.936e+00 3.917e-02 1.272e-02 1.011e-02 1.604e-03]
entropy correction =  -0.0031416062293616815
cycle= 4 E= -88.379553337569  delta_E= -0.0369  |g|= 0.244  |ddm|= 1.59
HOMO: 0.8576428132060159 LUMO: 0.8815935647135743
mo_energy:
[0.212 0.214 0.221 0.225 0.354 0.37  0.632 0.632 0.633 0.637 0.646 0.649
 0.652 0.653 0.672 0.682 0.685 0.692 0.761 0.778 0.781 0.797 0.805 0.858
 0.882 0.887 0.89  0.892 0.955]
e_fermi =  0.868208500604606
[2.    2.    2.    2.    2.    2.    2.    2.    2.    2.    2.    2.
 2.    2.    2.    2.    2.    2.    2.    2.    2.    2.    2.    1.784
 0.129 0.047 0.024 0.016]
entropy correction =  -0.008035737396329606
cycle= 5 E= -88.4005737632275  delta_E= -0.021  |g|= 0.0703  |ddm|= 0.255
HOMO: 0.876057703612952 LUMO: 0.8900878204452265
mo_energy:
[0.224 0.226 0.234 0.237 0.374 0.389 0.644 0.644 0.645 0.649 0.658 0.661
 0.664 0.665 0.688 0.698 0.701 0.712 0.78  0.797 0.803 0.818 0.828 0.876
 0.89  0.894 0.899 0.9   0.961]
e_fermi =  0.8811558605669761
[2.    2.    2.    2.    2.    2.    2.    2.    2.    2.    2.    2.
 2.    2.    2.    2.    2.    2.    2.    2.    2.    2.    2.    1.47
 0.287 0.143 0.059 0.041]
entropy correction =  -0.014807213583604486
cycle= 6 E= -88.4030067582853  delta_E= -0.00243  |g|= 0.0296  |ddm|= 0.266
HOMO: 0.8700509447415523 LUMO: 0.8868435208833941
mo_energy:
[0.218 0.221 0.228 0.231 0.371 0.387 0.638 0.639 0.639 0.643 0.653 0.656
 0.659 0.659 0.681 0.691 0.695 0.707 0.778 0.795 0.799 0.815 0.825 0.87
 0.887 0.892 0.896 0.898 0.958]
e_fermi =  0.8768811915188441
[2.    2.    2.    2.    2.    2.    2.    2.    2.    2.    2.    2.
 2.    2.    2.    2.    2.    2.    2.    2.    2.    2.    2.    1.593
 0.24  0.092 0.045 0.03 ]
entropy correction =  -0.012436143113591688
cycle= 7 E= -88.4035471751993  delta_E= -0.00054  |g|= 0.00649  |ddm|= 0.109
HOMO: 0.8710564450659454 LUMO: 0.887069442914941
mo_energy:
[0.219 0.221 0.228 0.231 0.372 0.387 0.639 0.64  0.64  0.644 0.653 0.656
 0.659 0.66  0.682 0.692 0.696 0.708 0.778 0.796 0.8   0.816 0.826 0.871
 0.887 0.892 0.896 0.898 0.959]
e_fermi =  0.8774910368841039
[2.    2.    2.    2.    2.    2.    2.    2.    2.    2.    2.    2.
 2.    2.    2.    2.    2.    2.    2.    2.    2.    2.    2.    1.567
 0.257 0.097 0.048 0.031]
entropy correction =  -0.012934215323054665
cycle= 8 E= -88.403578334142  delta_E= -3.12e-05  |g|= 0.00121  |ddm|= 0.0217
HOMO: 0.8710765139143426 LUMO: 0.887055447898174
mo_energy:
[0.219 0.221 0.228 0.231 0.372 0.387 0.639 0.64  0.64  0.644 0.653 0.656
 0.659 0.66  0.682 0.692 0.696 0.708 0.778 0.796 0.8   0.816 0.826 0.871
 0.887 0.892 0.896 0.898 0.959]
e_fermi =  0.8774981988522921
[2.    2.    2.    2.    2.    2.    2.    2.    2.    2.    2.    2.
 2.    2.    2.    2.    2.    2.    2.    2.    2.    2.    2.    1.566
 0.258 0.097 0.048 0.031]
entropy correction =  -0.012947982090684769
cycle= 9 E= -88.4035789799338  delta_E= -6.46e-07  |g|= 0.000331  |ddm|= 0.00234
HOMO: 0.8710346805756967 LUMO: 0.8869976792888696
mo_energy:
[0.219 0.221 0.228 0.231 0.372 0.387 0.639 0.639 0.64  0.644 0.653 0.656
 0.659 0.66  0.682 0.692 0.696 0.708 0.778 0.796 0.8   0.816 0.826 0.871
 0.887 0.892 0.896 0.898 0.959]
e_fermi =  0.8774591866717323
[2.    2.    2.    2.    2.    2.    2.    2.    2.    2.    2.    2.
 2.    2.    2.    2.    2.    2.    2.    2.    2.    2.    2.    1.567
 0.258 0.096 0.047 0.031]
entropy correction =  -0.012938279156494875
cycle= 10 E= -88.4035790452621  delta_E= -6.53e-08  |g|= 6.14e-05  |ddm|= 0.00127
HOMO: 0.8710378944190103 LUMO: 0.886997286508275
mo_energy:
[0.219 0.221 0.228 0.231 0.372 0.387 0.639 0.639 0.64  0.644 0.653 0.656
 0.659 0.66  0.682 0.692 0.696 0.708 0.778 0.796 0.8   0.816 0.826 0.871
 0.887 0.892 0.896 0.898 0.959]
e_fermi =  0.8774611959737004
[2.    2.    2.    2.    2.    2.    2.    2.    2.    2.    2.    2.
 2.    2.    2.    2.    2.    2.    2.    2.    2.    2.    2.    1.566
 0.259 0.096 0.047 0.031]
entropy correction =  -0.01293946570770499
cycle= 11 E= -88.4035790467875  delta_E= -1.53e-09  |g|= 3.36e-05  |ddm|= 0.000177
HOMO: 0.8710389637654972 LUMO: 0.8869975949724654
mo_energy:
[0.219 0.221 0.228 0.231 0.372 0.387 0.639 0.639 0.64  0.644 0.653 0.656
 0.659 0.66  0.682 0.692 0.696 0.708 0.778 0.796 0.8   0.816 0.826 0.871
 0.887 0.892 0.896 0.898 0.959]
e_fermi =  0.8774619965672038
[2.    2.    2.    2.    2.    2.    2.    2.    2.    2.    2.    2.
 2.    2.    2.    2.    2.    2.    2.    2.    2.    2.    2.    1.566
 0.259 0.096 0.047 0.031]
entropy correction =  -0.012939751413823005
cycle= 12 E= -88.40357904726  delta_E= -4.72e-10  |g|= 4.7e-06  |ddm|= 5.88e-05
HOMO: 0.8710371954991624 LUMO: 0.8869966577037324
mo_energy:
[0.219 0.221 0.228 0.231 0.372 0.387 0.639 0.639 0.64  0.644 0.653 0.656
 0.659 0.66  0.682 0.692 0.696 0.708 0.778 0.796 0.8   0.816 0.826 0.871
 0.887 0.892 0.896 0.898 0.959]
e_fermi =  0.8774607600155718
[2.    2.    2.    2.    2.    2.    2.    2.    2.    2.    2.    2.
 2.    2.    2.    2.    2.    2.    2.    2.    2.    2.    2.    1.567
 0.259 0.096 0.047 0.031]
entropy correction =  -0.012939016442345685
Extra cycle  E= -88.4035790472223  delta_E= 3.77e-11  |g|= 9.71e-06  |ddm|= 3.52e-05
converged SCF energy = -88.4035790472223
|umat| =  1.2741164676909142
rks_ao.ne_frozen =  0
Set gradient conv threshold to 3.16228e-05
tot grids = 120648
init E= -387.504249872823
HOMO:  0.19292452479997949 LUMO:  0.20150450948584905
Fermi energy:       0.1966900674
[2.     2.     2.     2.     2.     2.     2.     2.     2.     2.
 2.     2.     2.     2.     2.     2.     1.3597 0.5526 0.0617 0.0236
 0.0024]
entropy correction =  -0.01427461502467863
cycle= 1 E= -326.426818282896  delta_E= 61.1  |g|= 12.4  |ddm|= 7.54
HOMO:  -8.459801676467512 LUMO:  -8.454357819765283
Fermi energy:      -8.4559550200
[2.     2.     2.     2.     2.     2.     2.     2.     1.9967 1.9961
 1.9883 1.9876 1.9803 1.9772 1.953  1.9124 1.3668 0.8416]
entropy correction =  -0.018135799033723237
cycle= 2 E= -384.918334865081  delta_E= -58.5  |g|= 4.16  |ddm|= 7.69
HOMO:  -2.1038135883409828 LUMO:  -2.092863341292693
Fermi energy:      -2.0956772234
[2.     2.     2.     2.     2.     2.     2.     2.     2.     2.
 2.     2.     2.     1.9902 1.9158 1.6966 1.6716 0.7258]
entropy correction =  -0.01732905788394275
cycle= 3 E= -388.451683723041  delta_E= -3.53  |g|= 1.76  |ddm|= 3.44
HOMO:  -1.0347833316272872 LUMO:  -1.011484224033242
Fermi energy:      -1.0238547177
[2.     2.     2.     2.     2.     2.     2.     2.     2.     2.
 2.     2.     2.     2.     2.     1.9509 1.7979 0.1554 0.0496 0.0195
 0.0147 0.012 ]
entropy correction =  -0.00966667882710085
cycle= 4 E= -360.593000397771  delta_E= 27.9  |g|= 11.8  |ddm|= 5.13
HOMO:  -1.3807526123098235 LUMO:  -1.363110217598251
Fermi energy:      -1.3705386831
[2.     2.     2.     2.     2.     2.     2.     2.     2.     2.
 2.     2.     2.     1.9662 1.8608 1.8156 1.7704 0.3691 0.2178]
entropy correction =  -0.01824771738223945
cycle= 5 E= -385.030793201845  delta_E= -24.4  |g|= 4.01  |ddm|= 3.57
HOMO:  -1.4266526460735687 LUMO:  -1.417636993798718
Fermi energy:      -1.4181042961
[2.     2.     2.     2.     2.     2.     2.     2.     2.     2.
 2.     2.     2.     1.8593 1.773  1.7208 1.6936 0.9533]
entropy correction =  -0.021328337844333575
cycle= 6 E= -388.021342039957  delta_E= -2.99  |g|= 2.59  |ddm|= 1.74
HOMO:  -1.421313906151483 LUMO:  -1.4127695342568685
Fermi energy:      -1.4155632897
[2.     2.     2.     2.     2.     2.     2.     2.     2.     2.
 2.     2.     2.     1.9555 1.913  1.8848 1.5191 0.7277]
entropy correction =  -0.01713179416342573
cycle= 7 E= -388.441811278838  delta_E= -0.42  |g|= 2.06  |ddm|= 0.486
HOMO:  -1.5839491040595433 LUMO:  -1.573403980777551
Fermi energy:      -1.5764337508
[2.     2.     2.     2.     2.     2.     2.     2.     2.     2.
 2.     2.     2.     1.9973 1.9768 1.6839 1.6361 0.706 ]
entropy correction =  -0.016336570002156128
cycle= 8 E= -388.611943505296  delta_E= -0.17  |g|= 1.62  |ddm|= 1.64
HOMO:  -1.5126978017629764 LUMO:  -1.5053704633325105
Fermi energy:      -1.5090302818
[2.     2.     2.     2.     2.     2.     2.     2.     2.     2.
 2.     2.     2.     2.     1.9998 1.9996 1.3511 0.6495]
entropy correction =  -0.01263893399666175
cycle= 9 E= -388.532529281228  delta_E= 0.0794  |g|= 1.78  |ddm|= 1.84
HOMO:  -1.5625276788722897 LUMO:  -1.5517878742182283
Fermi energy:      -1.5549258489
[2.     2.     2.     2.     2.     2.     2.     2.     2.     2.
 2.     2.     2.     1.9983 1.9885 1.6759 1.6412 0.6961]
entropy correction =  -0.01602110071211453
cycle= 10 E= -388.602610619739  delta_E= -0.0701  |g|= 1.63  |ddm|=  1.8
HOMO:  -1.593704874321111 LUMO:  -1.5901075306908217
Fermi energy:      -1.5876841586
[2.     2.     2.     2.     2.     2.     2.     2.     2.     2.
 2.     2.     2.     1.9122 1.676  1.6357 1.5385 1.2377]
entropy correction =  -0.023026896200214128
cycle= 11 E= -388.673425731616  delta_E= -0.0708  |g|= 1.59  |ddm|= 0.632
HOMO:  -1.5593319723955303 LUMO:  -1.5526381087583705
Fermi energy:      -1.5559782389
[2.     2.     2.     2.     2.     2.     2.     2.     2.     2.
 2.     2.     2.     2.     1.9998 1.999  1.3233 0.6779]
entropy correction =  -0.012856836961999851
cycle= 12 E= -388.656901373456  delta_E= 0.0165  |g|= 1.58  |ddm|= 1.21
HOMO:  -1.52513999320964 LUMO:  -1.5164756931400736
Fermi energy:      -1.5200447993
[2.     2.     2.     2.     2.     2.     2.     2.     2.     2.
 2.     2.     2.     1.9713 1.9543 1.9473 1.4696 0.6575]
entropy correction =  -0.01517590354583581
cycle= 13 E= -388.603021795969  delta_E= 0.0539  |g|= 1.71  |ddm|= 1.85
HOMO:  -1.5346772381449956 LUMO:  -1.5260976739648155
Fermi energy:      -1.5302064605
[2.     2.     2.     2.     2.     2.     2.     2.     2.     2.
 2.     2.     2.     1.9949 1.9881 1.9867 1.4195 0.6108]
entropy correction =  -0.01311834809732588
cycle= 14 E= -388.604353631582  delta_E= -0.00133  |g|= 1.69  |ddm|= 0.0817
HOMO:  -1.5213945101660644 LUMO:  -1.5132347484933308
Fermi energy:      -1.5172518764
[2.     2.     2.     2.     2.     2.     2.     2.     2.     2.
 2.     2.     2.     1.9989 1.9958 1.9946 1.3921 0.6186]
entropy correction =  -0.012710227781257443
cycle= 15 E= -388.596326511282  delta_E= 0.00803  |g|= 1.71  |ddm|= 0.0329
HOMO:  -1.5203786501126917 LUMO:  -1.512722911212884
Fermi energy:      -1.5164904943
[2.     2.     2.     2.     2.     2.     2.     2.     2.     2.
 2.     2.     2.     1.9989 1.9957 1.9949 1.3703 0.6401]
entropy correction =  -0.012874575947691534
cycle= 16 E= -388.591375843337  delta_E= 0.00495  |g|= 1.72  |ddm|= 0.103
HOMO:  -1.5255159544955326 LUMO:  -1.518403510606733
Fermi energy:      -1.5198328628
[2.     2.     2.     2.     2.     2.     2.     2.     2.     2.
 2.     2.     2.     1.9164 1.8821 1.8294 1.5141 0.858 ]
entropy correction =  -0.01926769929019518
cycle= 17 E= -388.597679375889  delta_E= -0.0063  |g|= 1.75  |ddm|= 0.564
HOMO:  -1.4766658043325884 LUMO:  -1.47180208407309
Fermi energy:      -1.4741735597
[2.     2.     2.     2.     2.     2.     2.     2.     2.     2.
 2.     2.     2.     1.9994 1.9965 1.9927 1.2442 0.7672]
entropy correction =  -0.013685645679758053
cycle= 18 E= -388.54912372517  delta_E= 0.0486  |g|= 1.83  |ddm|= 0.625
HOMO:  -1.4887743766512656 LUMO:  -1.4842130465511831
Fermi energy:      -1.4863901274
[2.     2.     2.     2.     2.     2.     2.     2.     2.     2.
 2.     2.     2.     1.9986 1.994  1.9877 1.234  0.7857]
entropy correction =  -0.013990902287489993
cycle= 19 E= -388.55446331511  delta_E= -0.00534  |g|= 1.81  |ddm|= 0.277
HOMO:  -1.5093159846553468 LUMO:  -1.5042474689030836
Fermi energy:      -1.5064926684
[2.     2.     2.     2.     2.     2.     2.     2.     2.     2.
 2.     2.     2.     1.9974 1.9953 1.953  1.2751 0.7792]
entropy correction =  -0.014610595449826418
cycle= 20 E= -388.579007343077  delta_E= -0.0245  |g|= 1.76  |ddm|= 0.241
HOMO:  -1.0031392781428485 LUMO:  -0.9972897797901801
Fermi energy:      -1.0010243897
[2.     2.     2.     2.     2.     2.     2.     2.     2.     2.
 2.     2.     2.     2.     2.     1.9324 1.2084 0.643  0.1634 0.0292
 0.0237]
entropy correction =  -0.018705201521730993
cycle= 21 E= -373.156084653553  delta_E= 15.4  |g|= 8.76  |ddm|= 4.17
HOMO:  -1.2655626484855431 LUMO:  -1.2516681406948558
Fermi energy:      -1.2581228684
[2.     2.     2.     2.     2.     2.     2.     2.     2.     2.
 2.     2.     2.     2.     1.9542 1.7479 1.6315 0.4314 0.235 ]
entropy correction =  -0.018490318467323345
cycle= 22 E= -382.735420595096  delta_E= -9.58  |g|= 4.83  |ddm|= 1.81
HOMO:  -1.5227467176309724 LUMO:  -1.5213614028260123
Fermi energy:      -1.5175402061
[2.     2.     2.     2.     2.     2.     2.     2.     2.     2.
 2.     2.     2.     1.8419 1.6806 1.6347 1.4782 1.3645]
entropy correction =  -0.023900856478958562
cycle= 23 E= -388.443322696793  delta_E= -5.71  |g|=    2  |ddm|= 2.57
HOMO:  -1.5389198269723978 LUMO:  -1.5342069708505714
Fermi energy:      -1.5364586554
[2.     2.     2.     2.     2.     2.     2.     2.     2.     2.
 2.     2.     2.     1.9986 1.9954 1.9862 1.2413 0.7786]
entropy correction =  -0.013954868956870625
cycle= 24 E= -388.646915429293  delta_E= -0.204  |g|= 1.64  |ddm|= 1.63
HOMO:  -1.460012149655457 LUMO:  -1.4523602357759133
Fermi energy:      -1.4549398964
[2.     2.     2.     2.     2.     2.     2.     2.     2.     2.
 2.     2.     2.     1.9595 1.9206 1.9044 1.4678 0.7476]
entropy correction =  -0.01698096203343909
cycle= 25 E= -388.495830435617  delta_E= 0.151  |g|= 1.92  |ddm|= 1.81
HOMO:  -1.481390065223998 LUMO:  -1.4734968663699515
Fermi energy:      -1.4756080066
[2.     2.     2.     2.     2.     2.     2.     2.     2.     2.
 2.     2.     2.     1.9291 1.8885 1.869  1.5214 0.792 ]
entropy correction =  -0.018316926915614175
cycle= 26 E= -388.537633750383  delta_E= -0.0418  |g|= 1.86  |ddm|= 0.0856
HOMO:  -1.5482879267506688 LUMO:  -1.5399918178169785
Fermi energy:      -1.5421243080
[2.     2.     2.     2.     2.     2.     2.     2.     2.     2.
 2.     2.     2.     1.9116 1.8836 1.8663 1.5486 0.7899]
entropy correction =  -0.018534382964656072
cycle= 27 E= -388.627203304286  delta_E= -0.0896  |g|= 1.68  |ddm|= 0.0943
HOMO:  -1.5616811499348409 LUMO:  -1.5532367022848843
Fermi energy:      -1.5556168780
[2.     2.     2.     2.     2.     2.     2.     2.     2.     2.
 2.     2.     2.     1.9236 1.89   1.8784 1.5416 0.7664]
entropy correction =  -0.01808215972561931
cycle= 28 E= -388.6599685662  delta_E= -0.0328  |g|= 1.63  |ddm|= 0.0576
HOMO:  -1.6132433442750922 LUMO:  -1.604710208180426
Fermi energy:      -1.6063556973
[2.     2.     2.     2.     2.     2.     2.     2.     1.9997 1.9983
 1.9954 1.9917 1.9834 1.9726 1.9261 1.6988 1.5972 0.8369]
entropy correction =  -0.019362469965340433
cycle= 29 E= -389.242876852551  delta_E= -0.583  |g|= 0.893  |ddm|= 0.411
HOMO:  -1.610791478916863 LUMO:  -1.6050352723045727
Fermi energy:      -1.6021770487
[2.     2.     2.     2.     2.     2.     2.     2.     1.9683 1.9414
 1.9214 1.9154 1.8806 1.8648 1.7885 1.7443 1.697  1.2783]
entropy correction =  -0.028271839940086384
cycle= 30 E= -389.396634314134  delta_E= -0.154  |g|= 0.658  |ddm|= 0.805
HOMO:  -1.5929956681891377 LUMO:  -1.5860565159288105
Fermi energy:      -1.5872836437
[2.     2.     2.     2.     2.     2.     2.     2.     1.9998 1.9995
 1.9936 1.9839 1.946  1.9223 1.9118 1.849  1.5162 0.8779]
entropy correction =  -0.020475780365314524
cycle= 31 E= -389.236321030257  delta_E= 0.16  |g|= 0.889  |ddm|= 0.953
HOMO:  -1.5977875859238968 LUMO:  -1.5903419428992358
Fermi energy:      -1.5909553948
[2.     2.     2.     2.     2.     2.     2.     2.     1.9995 1.9988
 1.9955 1.9931 1.9698 1.9213 1.8765 1.7131 1.5936 0.9387]
entropy correction =  -0.02129504004681883
cycle= 32 E= -389.359194557748  delta_E= -0.123  |g|= 0.69  |ddm|= 0.391
HOMO:  -1.5538951930493883 LUMO:  -1.5459574172261774
Fermi energy:      -1.5498185237
[2.     2.     2.     2.     2.     2.     2.     2.     2.     2.
 2.     2.     2.     1.9984 1.9957 1.9874 1.3865 0.632 ]
entropy correction =  -0.013003614315250673
cycle= 33 E= -388.676738479502  delta_E= 0.682  |g|= 1.58  |ddm|= 1.65
HOMO:  -1.5981394971419718 LUMO:  -1.591974838801034
Fermi energy:      -1.5930249944
[2.     2.     2.     2.     2.     2.     2.     2.     1.9826 1.9818
 1.979  1.9726 1.967  1.9473 1.9141 1.8893 1.4711 0.8954]
entropy correction =  -0.020951649658388315
cycle= 34 E= -389.019346456723  delta_E= -0.343  |g|= 1.19  |ddm|= 1.63
HOMO:  -1.5935811605161927 LUMO:  -1.587351894099798
Fermi energy:      -1.5894041578
[2.     2.     2.     2.     2.     2.     2.     2.     1.9928 1.9925
 1.9917 1.9892 1.9823 1.9643 1.9571 1.9375 1.395  0.7976]
entropy correction =  -0.01777414115303585
cycle= 35 E= -388.848796930213  delta_E= 0.171  |g|= 1.36  |ddm|= 0.135
HOMO:  -1.6001085879055266 LUMO:  -1.5913668120364783
Fermi energy:      -1.5915594344
[2.     2.     2.     2.     2.     2.     2.     2.     1.9998 1.9996
 1.9986 1.9587 1.8721 1.847  1.8348 1.8151 1.6936 0.9807]
entropy correction =  -0.02331615102304423
cycle= 36 E= -389.011383935816  delta_E= -0.163  |g|= 1.22  |ddm|= 1.39
HOMO:  -1.6032782504412622 LUMO:  -1.5947955893027295
Fermi energy:      -1.5948398894
[2.     2.     2.     2.     2.     2.     2.     2.     1.9803 1.976
 1.9654 1.935  1.9215 1.9117 1.8892 1.7374 1.6878 0.9956]
entropy correction =  -0.024265047377863384
cycle= 37 E= -389.295342365937  delta_E= -0.284  |g|= 0.837  |ddm|= 0.23
HOMO:  -1.5902925575572426 LUMO:  -1.5863687196990914
Fermi energy:      -1.5816020322
[2.     2.     2.     2.     2.     2.     2.     2.     1.9862 1.9399
 1.9011 1.8774 1.8568 1.8193 1.7486 1.7261 1.7009 1.4436]
entropy correction =  -0.029551874467421805
cycle= 38 E= -389.423566612097  delta_E= -0.128  |g|=  0.6  |ddm|= 0.957
HOMO:  -1.5939335914866068 LUMO:  -1.5859450575910898
Fermi energy:      -1.5867566125
[2.     2.     2.     2.     2.     2.     2.     2.     1.9772 1.9612
 1.9553 1.9531 1.9416 1.9201 1.8858 1.8712 1.6155 0.919 ]
entropy correction =  -0.02313171784102555
cycle= 39 E= -389.193687515696  delta_E= 0.23  |g|= 0.982  |ddm|= 0.694
HOMO:  -1.5957805027471965 LUMO:  -1.5883006005953249
Fermi energy:      -1.5879704881
[2.     2.     2.     2.     2.     2.     2.     2.     1.9854 1.9528
 1.9295 1.9145 1.9127 1.8994 1.8648 1.8547 1.6533 1.033 ]
entropy correction =  -0.025246046625791142
cycle= 40 E= -389.233595095626  delta_E= -0.0399  |g|= 0.933  |ddm|= 0.34
HOMO:  -1.5973564126498885 LUMO:  -1.5899083106594842
Fermi energy:      -1.5878644183
[2.     2.     2.     2.     2.     2.     2.     2.     1.9615 1.9217
 1.9091 1.8999 1.8902 1.8458 1.8347 1.7961 1.7394 1.2016]
entropy correction =  -0.028023974995145133
cycle= 41 E= -389.43606579661  delta_E= -0.202  |g|= 0.576  |ddm|= 0.219
HOMO:  -1.6011310415559672 LUMO:  -1.5976100104324493
Fermi energy:      -1.5936170998
[2.     2.     2.     2.     2.     2.     2.     2.     1.9306 1.9212
 1.8876 1.8756 1.8624 1.855  1.8367 1.8156 1.636  1.3793]
entropy correction =  -0.02960881325759157
cycle= 42 E= -389.552571880029  delta_E= -0.117  |g|= 0.156  |ddm|= 0.539
HOMO:  -1.5983039353362518 LUMO:  -1.5947916801052777
Fermi energy:      -1.5913780338
[2.     2.     2.     2.     2.     2.     2.     2.     1.9228 1.9013
 1.8988 1.8897 1.8765 1.8661 1.8607 1.8557 1.5996 1.3287]
entropy correction =  -0.02901768534069953
cycle= 43 E= -389.561500518868  delta_E= -0.00893  |g|= 0.0534  |ddm|= 0.24
HOMO:  -1.5981964341888835 LUMO:  -1.5947861676205606
Fermi energy:      -1.5910411218
[2.     2.     2.     2.     2.     2.     2.     2.     1.9089 1.8969
 1.8926 1.882  1.8729 1.869  1.8623 1.8433 1.6141 1.3579]
entropy correction =  -0.029436035230953648
cycle= 44 E= -389.562932824451  delta_E= -0.00143  |g|= 0.00861  |ddm|= 0.118
HOMO:  -1.5986987470882317 LUMO:  -1.5952504712791882
Fermi energy:      -1.5912722043
[2.     2.     2.     2.     2.     2.     2.     2.     1.9017 1.8902
 1.8838 1.8787 1.8713 1.8659 1.8621 1.8375 1.6307 1.3781]
entropy correction =  -0.029748429732126692
cycle= 45 E= -389.562871337228  delta_E= 6.15e-05  |g|= 0.0249  |ddm|= 0.0604
HOMO:  -1.5988586765504476 LUMO:  -1.595335766410696
Fermi energy:      -1.5914646514
[2.     2.     2.     2.     2.     2.     2.     2.     1.9032 1.8934
 1.8833 1.8787 1.873  1.871  1.8624 1.8373 1.6288 1.3689]
entropy correction =  -0.02964497416370674
cycle= 46 E= -389.562760529716  delta_E= 0.000111  |g|= 0.0264  |ddm|= 0.0378
HOMO:  -1.5988641453150443 LUMO:  -1.5954207953328612
Fermi energy:      -1.5914598241
[2.     2.     2.     2.     2.     2.     2.     2.     1.9019 1.8905
 1.8835 1.879  1.8721 1.8672 1.8615 1.8383 1.6294 1.3766]
entropy correction =  -0.02972698628852079
cycle= 47 E= -389.563074691753  delta_E= -0.000314  |g|= 0.00853  |ddm|= 0.0478
HOMO:  -1.5986245366407739 LUMO:  -1.5951897236817199
Fermi energy:      -1.5912733563
[2.     2.     2.     2.     2.     2.     2.     2.     1.9025 1.8905
 1.8852 1.8794 1.8704 1.8693 1.8628 1.841  1.6262 1.3728]
entropy correction =  -0.029673415584864752
cycle= 48 E= -389.563102003995  delta_E= -2.73e-05  |g|= 0.0041  |ddm|= 0.0121
HOMO:  -1.5986029648257878 LUMO:  -1.595168136220008
Fermi energy:      -1.5912562560
[2.     2.     2.     2.     2.     2.     2.     2.     1.9029 1.8904
 1.8846 1.8791 1.8711 1.8695 1.8626 1.8413 1.6259 1.3724]
entropy correction =  -0.02966839223711908
cycle= 49 E= -389.563107003544  delta_E= -5e-06  |g|= 0.00224  |ddm|= 0.00376
HOMO:  -1.5986135642826993 LUMO:  -1.595178242546824
Fermi energy:      -1.5912669336
[2.     2.     2.     2.     2.     2.     2.     2.     1.9029 1.8905
 1.8845 1.8791 1.8712 1.8695 1.8627 1.8414 1.6259 1.3723]
entropy correction =  -0.029668075772889588
cycle= 50 E= -389.563108863006  delta_E= -1.86e-06  |g|= 0.000309  |ddm|= 0.00163
HOMO:  -1.5986187552655182 LUMO:  -1.5951832407235116
Fermi energy:      -1.5912693344
[2.     2.     2.     2.     2.     2.     2.     2.     1.9028 1.8904
 1.8845 1.8792 1.8712 1.8695 1.8626 1.8412 1.6261 1.3726]
entropy correction =  -0.029671104281634757
cycle= 51 E= -389.563108923618  delta_E= -6.06e-08  |g|= 4.62e-05  |ddm|= 0.000716
HOMO:  -1.59861643331363 LUMO:  -1.595180985022064
Fermi energy:      -1.5912680346
[2.     2.     2.     2.     2.     2.     2.     2.     1.9028 1.8905
 1.8845 1.8791 1.8712 1.8695 1.8626 1.8412 1.626  1.3725]
entropy correction =  -0.02966998047491017
cycle= 52 E= -389.563108924229  delta_E= -6.12e-10  |g|= 1.53e-05  |ddm|= 0.000159
HOMO:  -1.5986188952508347 LUMO:  -1.5951831556800813
Fermi energy:      -1.5912685670
[2.     2.     2.     2.     2.     2.     2.     2.     1.9028 1.8904
 1.8845 1.8792 1.8712 1.8694 1.8626 1.8412 1.6261 1.3726]
entropy correction =  -0.029671995623265328
Extra cycle  E= -389.563108406094  delta_E= 5.18e-07  |g|= 0.00118  |ddm|= 0.00066
entropy correction =  -0.029671995623265328
rks_ao.ne_frozen =  0
Set gradient conv threshold to 3.16228e-05
tot grids = 139880
init E= -78.9684210683066
HOMO:  0.16473509179008727 LUMO:  0.185058301050757
Fermi energy:       0.1748934574
[2.0000e+00 2.0000e+00 2.0000e+00 2.0000e+00 2.0000e+00 2.0000e+00
 2.0000e+00 2.0000e+00 2.0000e+00 2.0000e+00 2.0000e+00 2.0000e+00
 2.0000e+00 2.0000e+00 2.0000e+00 2.0000e+00 2.0000e+00 2.0000e+00
 2.0000e+00 2.0000e+00 2.0000e+00 2.0000e+00 2.0000e+00 1.7682e+00
 2.3157e-01 2.6578e-04]
entropy correction =  -0.007184743426771887
cycle= 1 E= -86.3130194214213  delta_E= -7.34  |g|= 2.55  |ddm|=   10
HOMO:  0.8031194676851398 LUMO:  0.84341692429537
Fermi energy:       0.8232586920
[2.0000e+00 2.0000e+00 2.0000e+00 2.0000e+00 2.0000e+00 2.0000e+00
 2.0000e+00 2.0000e+00 2.0000e+00 2.0000e+00 2.0000e+00 2.0000e+00
 2.0000e+00 2.0000e+00 2.0000e+00 2.0000e+00 2.0000e+00 2.0000e+00
 2.0000e+00 2.0000e+00 2.0000e+00 2.0000e+00 2.0000e+00 1.9650e+00
 3.4871e-02 1.3118e-04]
entropy correction =  -0.0017673669127122582
cycle= 2 E= -87.1594802319915  delta_E= -0.846  |g|= 1.97  |ddm|= 6.11
HOMO:  0.9030352617202754 LUMO:  0.9045560526857153
Fermi energy:       0.9020272712
[2.     2.     2.     2.     2.     2.     2.     2.     2.     2.
 2.     2.     2.     2.     2.     2.     2.     2.     2.     2.
[...]
HOMO:  -1.6080257462321284 LUMO:  -1.6013546453059566
Fermi energy:      -1.5993861116
[2.     2.     2.     2.     2.     2.     2.     2.     1.9449 1.9378
 1.9289 1.9219 1.8924 1.8635 1.8559 1.7622 1.6983 1.1943]
entropy correction =  -0.02763921670207501
cycle= 56 E= -389.48001956302  delta_E= -0.0768  |g|= 0.591  |ddm|= 0.159
HOMO:  -1.6087953036892297 LUMO:  -1.603060359164474
Fermi energy:      -1.6006479243
[2.     2.     2.     2.     2.     2.     2.     2.     1.9401 1.9257
 1.9118 1.9109 1.8994 1.8956 1.8227 1.785  1.6722 1.2367]
entropy correction =  -0.028123003426542243
cycle= 57 E= -389.530868506758  delta_E= -0.0508  |g|= 0.456  |ddm|= 0.154
HOMO:  -1.608701903752241 LUMO:  -1.6041437794944426
Fermi energy:      -1.6009097756
[2.     2.     2.     2.     2.     2.     2.     2.     1.9495 1.9189
 1.914  1.9079 1.9058 1.9018 1.8585 1.6788 1.6523 1.3126]
entropy correction =  -0.02839035331610563
cycle= 58 E= -389.551318495183  delta_E= -0.0204  |g|= 0.377  |ddm|= 0.419
HOMO:  -1.6095880041975348 LUMO:  -1.605134512933319
Fermi energy:      -1.6021529618
[2.     2.     2.     2.     2.     2.     2.     2.     1.9579 1.9503
 1.8971 1.8813 1.8755 1.8606 1.8477 1.8086 1.6313 1.2896]
entropy correction =  -0.028455651827527753
cycle= 59 E= -389.55408043677  delta_E= -0.00276  |g|= 0.384  |ddm|= 0.494
HOMO:  -1.6116584352973369 LUMO:  -1.6077131161642721
Fermi energy:      -1.6035770506
[2.     2.     2.     2.     2.     2.     2.     2.     1.9138 1.9048
 1.8826 1.8801 1.8726 1.8475 1.829  1.8095 1.6686 1.3915]
entropy correction =  -0.029957700859089102
cycle= 60 E= -389.586350647029  delta_E= -0.0323  |g|= 0.248  |ddm|= 0.239
HOMO:  -1.6115806121218614 LUMO:  -1.6076252455327749
Fermi energy:      -1.6036191107
[2.     2.     2.     2.     2.     2.     2.     2.     1.9079 1.8875
 1.8741 1.868  1.8664 1.8564 1.8503 1.8472 1.6619 1.3805]
entropy correction =  -0.02994374185057082
cycle= 61 E= -389.59808145348  delta_E= -0.0117  |g|= 0.173  |ddm|= 0.0874
HOMO:  -1.6104485907736807 LUMO:  -1.606960286979165
Fermi energy:      -1.6030861738
[2.     2.     2.     2.     2.     2.     2.     2.     1.8928 1.8908
 1.8879 1.8803 1.8713 1.8691 1.8576 1.8541 1.6269 1.3691]
entropy correction =  -0.029661945911766744
cycle= 62 E= -389.607401534258  delta_E= -0.00932  |g|= 0.0679  |ddm|= 0.0917
HOMO:  -1.6100754765670313 LUMO:  -1.6065894505538962
Fermi energy:      -1.6026767094
[2.     2.     2.     2.     2.     2.     2.     2.     1.8891 1.8869
 1.88   1.876  1.8723 1.8685 1.8652 1.8605 1.6291 1.3725]
entropy correction =  -0.029725250193969124
cycle= 63 E= -389.608839722285  delta_E= -0.00144  |g|= 0.0273  |ddm|= 0.0455
HOMO:  -1.6102870615953297 LUMO:  -1.6068083673499822
Fermi energy:      -1.6028070830
[2.     2.     2.     2.     2.     2.     2.     2.     1.8895 1.8842
 1.8795 1.874  1.8701 1.8673 1.861  1.8604 1.634  1.3801]
entropy correction =  -0.02982616007637763
cycle= 64 E= -389.60911427472  delta_E= -0.000275  |g|= 0.00588  |ddm|= 0.0272
HOMO:  -1.610251082087169 LUMO:  -1.6067765666461749
Fermi energy:      -1.6028681996
[2.     2.     2.     2.     2.     2.     2.     2.     1.8891 1.8835
 1.8798 1.8754 1.8736 1.8692 1.8659 1.8633 1.6281 1.3721]
entropy correction =  -0.029719375153130164
cycle= 65 E= -389.609133337935  delta_E= -1.91e-05  |g|= 0.00133  |ddm|= 0.0135
HOMO:  -1.610288245978724 LUMO:  -1.6068118755765044
Fermi energy:      -1.6028906988
[2.     2.     2.     2.     2.     2.     2.     2.     1.8889 1.8832
 1.8795 1.8758 1.8727 1.8698 1.8659 1.8621 1.629  1.3732]
entropy correction =  -0.02973518622840353
cycle= 66 E= -389.60913126035  delta_E= 2.08e-06  |g|= 0.00275  |ddm|= 0.00587
HOMO:  -1.6102902525307308 LUMO:  -1.606813918274406
Fermi energy:      -1.6028887687
[2.     2.     2.     2.     2.     2.     2.     2.     1.8892 1.8836
 1.8793 1.8752 1.8728 1.8691 1.8655 1.8626 1.6292 1.3735]
entropy correction =  -0.029739596999019322
cycle= 67 E= -389.609133687803  delta_E= -2.43e-06  |g|= 0.00173  |ddm|= 0.00418
HOMO:  -1.6102667804607118 LUMO:  -1.6067915019341128
Fermi energy:      -1.6028685441
[2.     2.     2.     2.     2.     2.     2.     2.     1.8893 1.8834
 1.8796 1.8751 1.873  1.8691 1.8655 1.8627 1.629  1.3733]
entropy correction =  -0.02973664438185908
cycle= 68 E= -389.609134752542  delta_E= -1.06e-06  |g|= 0.000459  |ddm|= 0.00135
HOMO:  -1.6102693035938584 LUMO:  -1.6067939318812745
Fermi energy:      -1.6028692362
[2.     2.     2.     2.     2.     2.     2.     2.     1.8892 1.8834
 1.8796 1.8751 1.8729 1.8691 1.8655 1.8626 1.6291 1.3735]
entropy correction =  -0.029738737885455026
cycle= 69 E= -389.609134835255  delta_E= -8.27e-08  |g|= 0.00015  |ddm|= 0.000493
HOMO:  -1.6102718883621014 LUMO:  -1.6067964205348069
Fermi energy:      -1.6028709538
[2.     2.     2.     2.     2.     2.     2.     2.     1.8892 1.8834
 1.8796 1.875  1.8729 1.8691 1.8654 1.8626 1.6292 1.3736]
entropy correction =  -0.029739642796563652
cycle= 70 E= -389.609134844238  delta_E= -8.98e-09  |g|= 2.28e-05  |ddm|= 0.000224
HOMO:  -1.6102736843173513 LUMO:  -1.6067981890940068
Fermi energy:      -1.6028726236
[2.     2.     2.     2.     2.     2.     2.     2.     1.8892 1.8834
 1.8796 1.875  1.8729 1.8691 1.8654 1.8626 1.6292 1.3736]
entropy correction =  -0.02973977806158203
cycle= 71 E= -389.609134843164  delta_E= 1.07e-09  |g|= 2.37e-05  |ddm|= 0.000226
HOMO:  -1.6102729276551269 LUMO:  -1.6067974435366414
Fermi energy:      -1.6028719680
[2.     2.     2.     2.     2.     2.     2.     2.     1.8892 1.8834
 1.8796 1.875  1.8729 1.8691 1.8654 1.8626 1.6292 1.3736]
entropy correction =  -0.029739669363721567
cycle= 72 E= -389.609134844516  delta_E= -1.35e-09  |g|= 1.22e-05  |ddm|= 0.000199
HOMO:  -1.6102723780138313 LUMO:  -1.6067969077517859
Fermi energy:      -1.6028714967
[2.     2.     2.     2.     2.     2.     2.     2.     1.8892 1.8834
 1.8796 1.875  1.8729 1.8691 1.8654 1.8626 1.6292 1.3735]
entropy correction =  -0.029739585687683756
cycle= 73 E= -389.609134844917  delta_E= -4.01e-10  |g|= 5e-06  |ddm|= 7.5e-05
HOMO:  -1.6102725882795872 LUMO:  -1.6067969727743354
Fermi energy:      -1.6028715134
[2.     2.     2.     2.     2.     2.     2.     2.     1.8892 1.8834
 1.8795 1.875  1.8729 1.8691 1.8654 1.8626 1.6292 1.3736]
entropy correction =  -0.029739717374663476
Extra cycle  E= -389.609134685077  delta_E= 1.6e-07  |g|= 0.000664  |ddm|= 0.000291
entropy correction =  -0.029739717374663476
rks_ao.ne_frozen =  0
Set gradient conv threshold to 3.16228e-05
tot grids = 139880
init E= -78.9711933790697
HOMO:  0.16263354103381034 LUMO:  0.18691533664850177
Fermi energy:       0.1747559114
[2.0000e+00 2.0000e+00 2.0000e+00 2.0000e+00 2.0000e+00 2.0000e+00
 2.0000e+00 2.0000e+00 2.0000e+00 2.0000e+00 2.0000e+00 2.0000e+00
 2.0000e+00 2.0000e+00 2.0000e+00 2.0000e+00 2.0000e+00 2.0000e+00
 2.0000e+00 2.0000e+00 2.0000e+00 2.0000e+00 2.0000e+00 1.8373e+00
 1.6155e-01 1.1044e-03]
entropy correction =  -0.005673472356767123
cycle= 1 E= -86.2659889061653  delta_E= -7.29  |g|= 2.58  |ddm|= 10.1
HOMO:  0.8160709431890096 LUMO:  0.842034627570623
Fermi energy:       0.8290430739
[2.0000e+00 2.0000e+00 2.0000e+00 2.0000e+00 2.0000e+00 2.0000e+00
 2.0000e+00 2.0000e+00 2.0000e+00 2.0000e+00 2.0000e+00 2.0000e+00
 2.0000e+00 2.0000e+00 2.0000e+00 2.0000e+00 2.0000e+00 2.0000e+00
 2.0000e+00 2.0000e+00 2.0000e+00 2.0000e+00 2.0000e+00 1.8610e+00
 1.3849e-01 5.0436e-04]
entropy correction =  -0.0050640037353369685
cycle= 2 E= -87.1379208326627  delta_E= -0.872  |g|=    2  |ddm|= 6.23
HOMO:  0.8963335666871451 LUMO:  0.9011742250591733
Fermi energy:       0.8969705356
[2.     2.     2.     2.     2.     2.     2.     2.     2.     2.
 2.     2.     2.     2.     2.     2.     2.     2.     2.     2.
 1.9999 1.9981 1.9709 1.0636 0.6028 0.2531 0.1028 0.0089]
entropy correction =  -0.01998561858389763
cycle= 3 E= -88.3807224051857  delta_E= -1.24  |g|= 0.244  |ddm|= 2.49
HOMO:  0.8317652329855809 LUMO:  0.8657856245245503
Fermi energy:       0.8479006858
[2.0000e+00 2.0000e+00 2.0000e+00 2.0000e+00 2.0000e+00 2.0000e+00
 2.0000e+00 2.0000e+00 2.0000e+00 2.0000e+00 2.0000e+00 2.0000e+00
 2.0000e+00 2.0000e+00 2.0000e+00 2.0000e+00 2.0000e+00 2.0000e+00
 2.0000e+00 2.0000e+00 2.0000e+00 2.0000e+00 2.0000e+00 1.9237e+00
 5.4399e-02 1.1901e-02 8.5700e-03 1.4485e-03]
entropy correction =  -0.0035694424348085355
cycle= 4 E= -88.3979173659594  delta_E= -0.0172  |g|= 0.215  |ddm|= 1.28
HOMO:  0.8574242070208701 LUMO:  0.8799349598030654
Fermi energy:       0.8675016291
[2.     2.     2.     2.     2.     2.     2.     2.     2.     2.
 2.     2.     2.     2.     2.     2.     2.     2.     2.     2.
 2.     2.     2.     1.7648 0.1536 0.0428 0.0239 0.015 ]
entropy correction =  -0.008455783575142525
cycle= 5 E= -88.4149621838354  delta_E= -0.017  |g|= 0.0656  |ddm|= 0.234
HOMO:  0.8729476436814918 LUMO:  0.8875594356964599
Fermi energy:       0.8786576938
[2.     2.     2.     2.     2.     2.     2.     2.     2.     2.
 2.     2.     2.     2.     2.     2.     2.     2.     2.     2.
 2.     2.     1.9997 1.5161 0.2885 0.1115 0.0453 0.0389]
entropy correction =  -0.01386599415350071
cycle= 6 E= -88.4173654783274  delta_E= -0.0024  |g|= 0.0183  |ddm|= 0.21
HOMO:  0.8695791579829362 LUMO:  0.8856568647224974
Fermi energy:       0.8762207491
[2.     2.     2.     2.     2.     2.     2.     2.     2.     2.
 2.     2.     2.     2.     2.     2.     2.     2.     2.     2.
 2.     2.     1.9997 1.5811 0.2631 0.0844 0.0403 0.0314]
entropy correction =  -0.012588960513379623
cycle= 7 E= -88.4175415875655  delta_E= -0.000176  |g|= 0.00465  |ddm|= 0.0584
HOMO:  0.8703620137487518 LUMO:  0.8858869563780691
Fermi energy:       0.8767219705
[2.     2.     2.     2.     2.     2.     2.     2.     2.     2.
 2.     2.     2.     2.     2.     2.     2.     2.     2.     2.
 2.     1.9999 1.9996 1.5622 0.2758 0.088  0.0422 0.0323]
entropy correction =  -0.012942178555833503
cycle= 8 E= -88.4175567951136  delta_E= -1.52e-05  |g|= 0.000444  |ddm|= 0.0157
HOMO:  0.8703111600913278 LUMO:  0.8858470447598839
Fermi energy:       0.8766846751
[2.     2.     2.     2.     2.     2.     2.     2.     2.     2.
 2.     2.     2.     2.     2.     2.     2.     2.     2.     2.
 2.     1.9999 1.9996 1.5631 0.2759 0.0873 0.042  0.0322]
entropy correction =  -0.012920218718583332
cycle= 9 E= -88.4175568873029  delta_E= -9.22e-08  |g|= 0.000171  |ddm|= 0.0013
HOMO:  0.870313184347479 LUMO:  0.8858455396147114
Fermi energy:       0.8766859266
[2.     2.     2.     2.     2.     2.     2.     2.     2.     2.
 2.     2.     2.     2.     2.     2.     2.     2.     2.     2.
 2.     1.9999 1.9996 1.563  0.276  0.0872 0.042  0.0322]
entropy correction =  -0.012920571804861516
cycle= 10 E= -88.4175568984807  delta_E= -1.12e-08  |g|= 8.43e-05  |ddm|= 0.000364
HOMO:  0.8703225025064056 LUMO:  0.88584908262308
Fermi energy:       0.8766923707
[2.     2.     2.     2.     2.     2.     2.     2.     2.     2.
 2.     2.     2.     2.     2.     2.     2.     2.     2.     2.
 2.     1.9999 1.9996 1.5628 0.2762 0.0872 0.0421 0.0322]
entropy correction =  -0.012924160848411326
cycle= 11 E= -88.4175569025078  delta_E= -4.03e-09  |g|= 1.81e-05  |ddm|= 0.000207
HOMO:  0.870323952811449 LUMO:  0.8858494980043553
Fermi energy:       0.8766933334
[2.     2.     2.     2.     2.     2.     2.     2.     2.     2.
 2.     2.     2.     2.     2.     2.     2.     2.     2.     2.
 2.     1.9999 1.9996 1.5628 0.2762 0.0872 0.0421 0.0322]
entropy correction =  -0.01292475491386185
cycle= 12 E= -88.4175569026575  delta_E= -1.5e-10  |g|= 5.28e-06  |ddm|= 4.92e-05
HOMO:  0.8703222015749759 LUMO:  0.8858485842545619
Fermi energy:       0.8766921032
[2.     2.     2.     2.     2.     2.     2.     2.     2.     2.
 2.     2.     2.     2.     2.     2.     2.     2.     2.     2.
 2.     1.9999 1.9996 1.5628 0.2762 0.0872 0.0421 0.0322]
entropy correction =  -0.012924035699397728
Extra cycle  E= -88.4175569026205  delta_E= 3.7e-11  |g|= 1e-05  |ddm|= 3.63e-05
entropy correction =  -0.012924035699397728
scf energies:
EA (no vemb contrib.) =  -445.4638888325636
EB (no vemb contrib.) =  -181.52808107404582
W =  -626.5762295849981
P_imp change (scf - non-scf):  0.17099873289414644
P_bath change (scf - non-scf):  0.19905941030390326
|P_frag + P_env - P_ref| =  0.6801306990483019
max element of (P_frag + P_env - P_ref) =  0.07365372795250663
mo orthogonality:
[[-3.6384e-03  1.3772e-02  1.1428e-04  4.4011e-05  2.4977e-02  1.1715e-04
   1.4401e-03  7.9985e-05 -4.7258e-03 -1.2661e-03  4.7016e-04  1.6552e-03
  -4.0947e-04 -2.3890e-04  1.6766e-02  1.5005e-02 -7.1190e-02 -1.1102e-04
  -4.8597e-05 -9.3595e-04 -1.9889e-02  3.6220e-04  7.6056e-02  2.1265e-04
   3.3783e-04  4.3844e-04 -2.1262e-02  9.7983e-02 -1.5887e-04  8.9178e-03]
 [ 1.6748e-02  2.8559e-03 -3.0567e-05 -5.8985e-05  6.0260e-03  6.1421e-05
  -5.2607e-03 -5.3883e-04 -1.2941e-03 -3.5740e-04 -2.0096e-03  9.5292e-05
  -1.8750e-04  8.4375e-04 -7.1781e-02  4.5276e-03 -1.6449e-02 -1.4959e-04
   3.4830e-04  1.0280e-03  8.1375e-02 -1.7298e-03  1.8561e-02 -8.2921e-05
   7.6353e-05 -1.0141e-03  8.0749e-02  2.4723e-02 -1.5045e-04  5.2358e-03]
 [ 7.1300e-04 -8.6272e-03  1.7796e-04  6.1878e-05  1.1802e-02  1.9893e-04
   1.2261e-03  3.5513e-04  9.5224e-03  1.3268e-03 -1.3365e-05 -1.0179e-04
   9.7893e-05  4.0322e-05 -4.0397e-03 -5.5698e-03  2.8276e-02  1.1132e-03
   8.1082e-05 -2.1698e-04 -1.8503e-03 -1.7245e-05  2.9170e-02 -1.5479e-05
   3.1719e-04  5.0777e-04  4.0121e-03  2.2597e-02  3.0263e-03 -7.3803e-04]
 [ 5.5900e-03  1.2768e-03  5.7188e-04  1.7304e-04 -1.9674e-03  4.0889e-04
   9.2994e-03  1.2697e-03 -1.3208e-03 -1.6270e-04 -2.8962e-04  4.4808e-04
  -1.4774e-05  1.9588e-04 -2.5730e-02  2.1587e-03 -4.2083e-03  2.2289e-03
   6.6789e-05 -1.1281e-04 -1.0868e-02  1.7582e-04 -4.8694e-03 -3.0582e-04
   4.0325e-04  8.0935e-04  2.5203e-02 -3.3888e-03  7.3683e-04 -2.8424e-04]
 [-3.8415e-04  9.2735e-05  9.2085e-03  1.3287e-03 -2.5582e-04  2.5493e-03
  -5.9897e-04 -1.0156e-04 -1.9061e-04  2.0242e-04  1.2212e-03  7.5272e-03
   3.1802e-04  2.4575e-05  1.7871e-03  6.7531e-03  9.4754e-04  3.7989e-02
  -4.5054e-05  3.4491e-05  7.0861e-04 -4.5897e-04 -4.9667e-04 -3.8406e-03
  -6.6630e-05  7.4398e-03 -1.2258e-03 -1.7879e-04  1.8167e-02 -5.4050e-03]
 [-9.5670e-05  1.3925e-06 -2.1947e-03  5.5005e-03 -6.0433e-05  1.1144e-02
   1.8246e-04 -3.0346e-04 -7.8922e-06 -1.2912e-05  5.6127e-03 -1.7710e-03
  -8.0132e-05  7.1575e-05  7.8506e-04  2.7996e-02  5.8685e-03 -8.9786e-03
  -2.7161e-04 -1.8237e-05  1.6192e-04 -1.9643e-03 -7.4681e-05  8.7121e-04
  -9.9794e-04  3.2120e-02 -1.0251e-04 -8.7618e-05 -4.7581e-03  1.2539e-03]
 [-5.6567e-05  4.3711e-05  3.4523e-05  7.6980e-05 -8.2366e-05  1.6909e-04
  -1.9518e-03  1.5336e-02 -8.0491e-04  4.9317e-03  5.7769e-05 -3.6135e-04
   3.1123e-05  4.6942e-05  2.3774e-04  4.9381e-04 -1.0228e-04  1.2725e-04
   1.3497e-02  8.0049e-05  3.0358e-05 -1.1102e-04 -1.8128e-04 -2.9490e-06
   5.8779e-02 -1.1863e-04  3.4509e-04  9.4192e-04 -4.7296e-03 -2.4841e-02]
 [ 3.6443e-05 -3.1885e-05 -1.7484e-04  5.3361e-05  1.1014e-04  1.1573e-04
  -8.0808e-04  6.5092e-03  1.2001e-03 -1.1581e-02  6.1750e-05  7.2216e-04
   5.0319e-06 -2.1386e-06  1.1110e-05  2.4443e-04  2.9775e-04 -6.5391e-04
   5.6379e-03  2.1242e-05 -3.4730e-05 -4.3030e-05  1.5532e-04  4.1749e-05
   2.4557e-02  4.7740e-05 -1.2873e-03 -3.0828e-03  1.1122e-02  5.9488e-02]
 [-1.0991e-03 -5.6940e-06  3.6956e-05 -5.1892e-05 -3.3620e-03  1.0714e-04
   2.5858e-03 -5.5586e-04 -2.1205e-03 -3.9814e-04 -1.8794e-04 -9.7895e-05
   8.3971e-04  2.1076e-03 -1.4144e-03  2.4306e-04 -3.8532e-04  1.9526e-05
   1.2847e-03  4.6885e-04  1.3602e-03  2.3167e-04  8.7973e-04 -8.2485e-05
  -8.3542e-04 -2.9055e-04  1.9289e-02  2.4313e-02  1.2801e-03  9.0204e-03]
 [-5.6914e-04 -1.3650e-04 -4.8114e-05 -1.6259e-04 -2.3812e-03  2.5476e-04
  -3.9494e-03 -8.6350e-04 -1.5571e-03 -2.6550e-04 -8.4717e-04 -9.0415e-05
   1.3311e-03  9.3991e-04  9.1087e-04  9.8482e-04 -3.5254e-04 -4.9580e-05
   5.0346e-04  6.1605e-04 -1.5524e-03  1.5605e-03  5.0438e-04  8.0198e-05
  -3.2779e-04 -1.4454e-04 -9.3166e-04  1.9288e-02  9.3975e-04  4.8602e-03]
 [-2.6114e-03  9.3955e-04  1.4861e-04 -3.1244e-04  4.7029e-03  5.0829e-04
   1.2049e-04 -8.7226e-04  2.7069e-03  3.1451e-04 -9.8514e-04 -8.1677e-05
   1.9895e-03 -2.4825e-03 -1.6735e-03  7.8728e-04  2.2604e-03  1.3174e-04
   1.4482e-03  8.9668e-04  9.0872e-04  2.1437e-03 -1.1646e-03  1.0112e-03
  -1.2058e-03 -8.6533e-04  3.7612e-02 -4.7903e-02 -2.1603e-04  1.9562e-04]
 [-3.5958e-03 -1.8758e-05  6.9790e-05  1.2750e-04 -3.8282e-03 -2.1073e-04
  -5.8067e-05 -1.2820e-03 -2.5586e-03 -2.2837e-04  2.8224e-04 -1.6994e-04
  -8.4223e-06  6.0926e-05 -2.2380e-03 -1.4334e-04 -6.8380e-04  8.0048e-05
   1.9582e-03 -4.6951e-06  1.0362e-03 -6.2716e-04  1.0171e-03 -1.2042e-03
  -1.2937e-03 -4.6392e-04  4.9014e-02  3.0203e-02 -2.1343e-03 -4.5386e-03]
 [ 2.3918e-04 -1.3740e-03  2.1992e-05 -2.2258e-04 -7.4530e-03  2.6174e-04
   5.2368e-04  1.1233e-03 -4.1275e-03 -5.5949e-04 -4.8092e-04 -6.5622e-05
   1.1588e-03 -2.3752e-03  5.7264e-05  1.3280e-03 -3.0637e-03 -2.0097e-05
  -1.6990e-03  3.8820e-04  1.1990e-04  1.1211e-03  1.8230e-03  5.4979e-04
   1.5185e-03 -1.0013e-05 -4.0687e-03  7.6159e-02  2.8968e-04  7.2245e-03]
 [-1.1279e-03 -5.7428e-03 -4.9900e-06 -2.6274e-05 -2.6145e-03 -4.7283e-05
  -1.2178e-04 -2.3205e-04  2.4085e-03  1.4709e-04 -5.0333e-06  5.0689e-04
  -1.7693e-04  1.9810e-04 -6.9198e-04  2.2899e-03 -1.0758e-02  3.7782e-05
   4.1472e-04 -2.8009e-05  2.4466e-04 -3.3365e-05  4.1230e-05  8.5004e-04
   1.8760e-04 -1.0742e-04  1.1652e-02  1.2152e-01 -1.8016e-03  1.2474e-02]
 [ 5.9858e-03 -8.0235e-04 -9.6768e-05 -2.1139e-04 -1.0322e-03  3.1776e-04
   9.6676e-04 -1.2754e-03 -1.9623e-04 -4.0346e-05 -6.1155e-04  7.2897e-05
   1.2544e-03 -4.0255e-04  3.6430e-03  9.5040e-04 -1.1147e-03 -1.1897e-04
   2.0688e-03  5.4984e-04 -1.6355e-03  1.4371e-03  2.0789e-04  1.5256e-03
  -1.4226e-03  8.9454e-04 -8.2304e-02  1.7647e-02  3.0006e-04 -3.8774e-03]
 [-3.6348e-04  1.2005e-04 -1.1747e-05 -6.7953e-05  2.2006e-03  1.4465e-04
   4.5001e-04  1.3243e-03  1.5096e-03  2.5231e-04 -1.7204e-04 -1.4245e-04
   2.7601e-03  1.7191e-03 -4.2923e-04  1.4228e-05  4.2173e-04  2.4290e-05
  -1.9482e-03  1.3641e-03  4.0579e-04  1.4039e-04 -5.6813e-04 -5.2241e-04
   1.3115e-03 -1.8474e-04  6.6759e-03 -1.6738e-02 -1.2072e-03 -5.9987e-03]
 [ 2.2779e-04 -8.3691e-06  1.0803e-04  1.9753e-02  1.8982e-04 -3.0224e-02
  -2.7193e-03  1.3707e-04 -5.6367e-05  1.4903e-04  6.3825e-02  5.7306e-04
  -7.4758e-05  2.1461e-03 -2.5342e-03 -7.0663e-02 -1.4991e-02  7.0229e-04
  -2.6128e-04 -9.0800e-04 -2.9161e-03 -1.2895e-01 -1.1977e-04  4.4515e-03
  -9.2864e-05  1.9352e-02 -1.0534e-04  2.6799e-04  7.6635e-05  3.0044e-04]
 [-7.3943e-06  2.0082e-05  1.9785e-02 -1.2606e-04 -4.5670e-05  3.9161e-04
  -7.0458e-05  7.9535e-06  2.1584e-04 -7.5901e-05 -9.6186e-04  5.5131e-03
   2.5851e-04  8.6626e-06  6.2023e-06  1.1168e-03  3.0199e-04  1.3415e-02
  -2.4451e-04 -1.6707e-05 -2.5005e-04  2.0141e-03 -2.4258e-04  3.2389e-01
   4.4716e-05 -1.9375e-04  1.4712e-03 -4.8233e-04 -4.7468e-02  9.1299e-03]]
|P_imp-P_imp_0| =  0.17099873289414644
max(P_imp-P_imp_0) =  0.017313865267736796
|P_bath-P_bath_0| =  0.19905941030390326
max(P_bath-P_bath_0) =  0.02177071996892501
time of total calc time : 78461.500  (cpu),  2056.063  (wall) 
Skip  = number of BFGS updates skipped
Nact  = number of active bounds at final generalized Cauchy point
Projg = norm of the final projected gradient
F     = final function value

           * * *

   N    Tit     Tnf  Tnint  Skip  Nact     Projg        F
 4278     50     55      1     0     0   1.825D-01   1.316D-01
  F =  0.13162580338265029     

STOP: TOTAL NO. of ITERATIONS REACHED LIMIT                 

 Cauchy                time 0.000E+00 seconds.
 Subspace minimization time 0.000E+00 seconds.
 Line search           time 0.000E+00 seconds.

 Total User time 0.000E+00 seconds.

