#INFO: **** input file is /tigress/xingz/pydmfet/examples/proj/graphene/graphene.py ****
from pydmfet import proj_ao
from pydmfet.qcwrap.pyscf_rks_ao import rks_ao
from pyscf import gto,scf
import numpy as np
from pyscf.tools import molden
from pyscf import lo
from pyscf.lo import iao,orth
from functools import reduce
import math

bas ='6-31G*'
temp = 0.00

mol = gto.Mole()
mol.atom = open('graphene.xyz').read()
mol.basis = bas
mol.charge = 0
mol.build(max_memory = 16000, verbose=4)

_, mo_energy, mo_coeff, mo_occ, irrep_labels, spins = molden.load("graphene_mo.molden")

#mf = scf.RKS(mol)
mf = rks_ao(mol,smear_sigma = temp)
mf.xc = "pbe,pbe"
mf.max_cycle = 100

mf.mo_energy = mo_energy
mf.mo_occ = mo_occ
mf.mo_coeff = mo_coeff

DMguess = mf.make_rdm1()
#DMguess=None
mf.scf(dm0=DMguess)

'''
with open( 'graphene_mo.molden', 'w' ) as thefile:
    molden.header(mol, thefile)
    molden.orbital_coeff(mol, thefile, mf.mo_coeff,ene=mf.mo_energy,occ=mf.mo_occ)
'''

natoms = mol.natm
impAtom = np.zeros([natoms], dtype=int)
impAtom[11-1] = 1
impAtom[18-1] = 1
impAtom[20-1] = 1
impAtom[46-1] = 1

embed = proj_ao.proj_embed(mf,impAtom, Ne_env = 174)
embed.pop_method = 'meta_lowdin'
embed.pm_exponent = 2
embed.make_frozen_orbs(norb = 103)

embed.embedding_potential()
#INFO: ******************** input file end ********************


System: uname_result(system='Linux', node='tigercpu.princeton.edu', release='3.10.0-957.21.2.el7.x86_64', version='#1 SMP Tue Jun 4 15:19:05 EDT 2019', machine='x86_64', processor='x86_64')  Threads 40
Python 3.7.0 (default, Jun 28 2018, 13:15:42) 
[GCC 7.2.0]
numpy 1.16.4  scipy 1.4.0.dev0+0f78e0f
Date: Fri Jul  5 01:33:52 2019
PySCF version 1.5
PySCF path  /home/xingz/.local/lib/python3.7/site-packages/pyscf

[CONFIG] conf_file None
[INPUT] verbose = 4
[INPUT] num. atoms = 46
[INPUT] num. electrons = 206
[INPUT] charge = 0
[INPUT] spin (= nelec alpha-beta = 2S) = 0
[INPUT] symmetry False subgroup None
[INPUT] Mole.unit = angstrom
[INPUT]  1 C     -3.699040000000  -2.181640000000   0.011830000000 AA   -6.990172523811  -4.122702102396   0.022355460054 Bohr
[INPUT]  2 C     -4.895100000000   0.018480000000   0.009500000000 AA   -9.250398352358   0.034922138782   0.017952398183 Bohr
[INPUT]  3 C     -2.357390000000  -2.847420000000   0.012640000000 AA   -4.454821468788  -5.380843961609   0.023886138215 Bohr
[INPUT]  4 C     -1.214900000000  -2.132120000000   0.012020000000 AA   -2.295828268734  -4.029122864708   0.022714508017 Bohr
[INPUT]  5 C     -3.686920000000  -0.685680000000   0.010330000000 AA   -6.967269043181  -1.295747409092   0.019520870867 Bohr
[INPUT]  6 C     -2.457720000000   0.006110000000   0.009750000000 AA   -4.644417690866   0.011546226621   0.018424829715 Bohr
[INPUT]  7 C     -4.894810000000   1.411880000000   0.008100000000 AA   -9.249850331782   2.668066520751   0.015306781609 Bohr
[INPUT]  8 C     -3.686330000000   2.115530000000   0.007510000000 AA   -6.966154104768   3.997772308301   0.014191843195 Bohr
[INPUT]  9 C      0.014890000000  -2.811070000000   0.012820000000 AA    0.028138021995  -5.312152416981   0.024226288917 Bohr
[INPUT] 10 C      1.223450000000  -2.107210000000   0.012210000000 AA    2.311985427099  -3.982049786945   0.023073555981 Bohr
[INPUT] 11 C     -1.235780000000  -0.709260000000   0.010580000000 AA   -2.335285750215  -1.340307151109   0.019993302398 Bohr
[INPUT] 12 C     -2.457420000000   1.423230000000   0.008320000000 AA   -4.643850773029   2.689514912265   0.015722521356 Bohr
[INPUT] 13 C     -1.235180000000   2.138080000000   0.007710000000 AA   -2.334151914540   4.040385632410   0.014569788420 Bohr
[INPUT] 14 C     -3.697820000000   3.611500000000   0.006010000000 AA   -6.987867057939   6.824745898867   0.011357254009 Bohr
[INPUT] 15 C     -2.355890000000   4.276710000000   0.005460000000 AA   -4.451986879602   8.081810614189   0.010317904640 Bohr
[INPUT] 16 C      2.446210000000  -2.796570000000   0.013020000000 AA    4.622666943172  -5.284751388175   0.024604234142 Bohr
[INPUT] 17 C      3.654900000000  -2.096460000000   0.012400000000 AA    6.906760012673  -3.961735231106   0.023432603945 Bohr
[INPUT] 18 C      1.213100000000  -0.696260000000   0.010780000000 AA    2.292426761710  -1.315740711490   0.020371247623 Bohr
[INPUT] 19 C      2.435460000000   0.009360000000   0.010170000000 AA    4.602352387333   0.017687836526   0.019218514687 Bohr
[INPUT] 20 C     -0.013850000000   1.422030000000   0.008540000000 AA   -0.026172706825   2.687247240915   0.016138261104 Bohr
[INPUT] 21 C      1.213690000000   2.124060000000   0.007930000000 AA    2.293541700123   4.013891672144   0.014985528168 Bohr
[INPUT] 22 C     -1.213700000000   3.560940000000   0.006280000000 AA   -2.293560597385   6.729201346009   0.011867480062 Bohr
[INPUT] 23 C      0.016370000000   4.239370000000   0.005690000000 AA    0.030934816659   8.011248240697   0.010752541649 Bohr
[INPUT] 24 C      3.661140000000  -0.695090000000   0.010980000000 AA    6.918551903690  -1.313529731924   0.020749192848 Bohr
[INPUT] 25 C      4.871090000000   0.014370000000   0.010350000000 AA    9.205026028108   0.027155364410   0.019558665389 Bohr
[INPUT] 26 C      2.435750000000   1.417930000000   0.008740000000 AA    4.602900407909   2.679499363805   0.016516206329 Bohr
[INPUT] 27 C      3.661730000000   2.121860000000   0.008120000000 AA    6.919666842104   4.009734274670   0.015344576131 Bohr
[INPUT] 28 C      1.224630000000   3.535000000000   0.006500000000 AA    2.314215303926   6.680181850337   0.012283219810 Bohr
[INPUT] 29 C      2.447680000000   4.223840000000   0.005900000000 AA    4.625444840575   7.981900793983   0.011149384135 Bohr
[INPUT] 30 C      4.871380000000   1.411900000000   0.008930000000 AA    9.205574048684   2.668104315273   0.016875254292 Bohr
[INPUT] 31 C      3.656080000000   3.523230000000   0.006700000000 AA    6.908989889500   6.657939773851   0.012661165035 Bohr
[INPUT] 32 H     -4.639710000000  -2.771750000000   0.012340000000 AA   -8.767781197406  -5.237848385763   0.023319220377 Bohr
[INPUT] 33 H     -5.839230000000  -0.512350000000   0.009950000000 AA  -11.034545478344  -0.968201179921   0.018802774939 Bohr
[INPUT] 34 H     -2.335290000000  -3.934260000000   0.013740000000 AA   -4.413058521436  -7.434673902831   0.025964836952 Bohr
[INPUT] 35 H     -5.838710000000   1.943100000000   0.007480000000 AA  -11.033562820759   3.671926832642   0.014135151412 Bohr
[INPUT] 36 H      0.034450000000  -3.896600000000   0.013920000000 AA    0.065101064991  -7.363506816980   0.026304987654 Bohr
[INPUT] 37 H     -4.638240000000   4.202010000000   0.005330000000 AA   -8.765003300003   7.940648072684   0.010072240244 Bohr
[INPUT] 38 H     -2.333340000000   5.363550000000   0.004360000000 AA   -4.409373555493  10.135640555411   0.008239205903 Bohr
[INPUT] 39 H      2.468170000000  -3.879980000000   0.014120000000 AA    4.664165328868  -7.332099568790   0.026682932879 Bohr
[INPUT] 40 H      4.585330000000  -2.651820000000   0.013040000000 AA    8.665017890752  -5.011213531644   0.024642028664 Bohr
[INPUT] 41 H      0.036380000000   5.324900000000   0.004600000000 AA    0.068748236412  10.062602640696   0.008692740173 Bohr
[INPUT] 42 H      5.818200000000  -0.512040000000   0.010960000000 AA   10.994804537944  -0.967615364822   0.020711398325 Bohr
[INPUT] 43 H      2.470100000000   5.307250000000   0.004810000000 AA    4.667812500288  10.029248974598   0.009089582659 Bohr
[INPUT] 44 H      5.818720000000   1.937900000000   0.008470000000 AA   10.995787195529   3.662100256795   0.016005980275 Bohr
[INPUT] 45 H      4.586750000000   4.078200000000   0.006210000000 AA    8.667701301849   7.706681081201   0.011735199234 Bohr
[INPUT] 46 C     -0.014150000000   0.006290000000   0.009970000000 AA   -0.026739624663   0.011886377324   0.018840569462 Bohr

nuclear repulsion = 2866.24058346546
number of shells = 220
number of NR pGTOs = 920
number of NR cGTOs = 476
basis = 6-31G*
ecp = {}
CPU time:         4.22
rks_ao.ne_frozen =  0


******** <class 'pydmfet.qcwrap.pyscf_rks_ao.rks_ao'> flags ********
method = rks_ao-RKS-RHF
initial guess = minao
damping factor = 0
level shift factor = 0
DIIS = <class 'pyscf.scf.diis.CDIIS'>
DIIS start cycle = 1
DIIS space = 8
SCF tol = 1e-09
SCF gradient tol = None
max. SCF cycles = 100
direct_scf = False
chkfile to save SCF result = /tigress/xingz/pydmfet/examples/proj/graphene/tmpy2bngw7o
max_memory 16000 MB (current use 80 MB)
XC functionals = pbe,pbe
small_rho_cutoff = 1e-07
radial grids: 
    Treutler-Ahlrichs (JCP 102, 346 (M4)) radial grids
    
becke partition: Becke, JCP, 88, 2547 (1988)
pruning grids: <function nwchem_prune at 0x2b382fa619d8>
grids dens level: 3
symmetrized grids: False
atomic radii adjust function: <function treutler_atomic_radii_adjust at 0x2b382fa61950>
Set gradient conv threshold to 3.16228e-05
tot grids = 585200
init E= -1226.41118584618
HOMO:  -0.1599438117268181 LUMO:  -0.09512710757013884
Fermi energy:      -0.1599438117
[2. 2. 2. 2. 2. 2. 2. 2. 2. 2. 2. 2. 2. 2. 2. 2. 2. 2. 2. 2. 2. 2. 2. 2.
 2. 2. 2. 2. 2. 2. 2. 2. 2. 2. 2. 2. 2. 2. 2. 2. 2. 2. 2. 2. 2. 2. 2. 2.
 2. 2. 2. 2. 2. 2. 2. 2. 2. 2. 2. 2. 2. 2. 2. 2. 2. 2. 2. 2. 2. 2. 2. 2.
 2. 2. 2. 2. 2. 2. 2. 2. 2. 2. 2. 2. 2. 2. 2. 2. 2. 2. 2. 2. 2. 2. 2. 2.
 2. 2. 2. 2. 2. 2. 2.]
cycle= 1 E= -1226.41138765396  delta_E= -0.000202  |g|= 0.000172  |ddm|= 0.00321
HOMO:  -0.15994968955787922 LUMO:  -0.09513601717192866
Fermi energy:      -0.1599496896
[2. 2. 2. 2. 2. 2. 2. 2. 2. 2. 2. 2. 2. 2. 2. 2. 2. 2. 2. 2. 2. 2. 2. 2.
 2. 2. 2. 2. 2. 2. 2. 2. 2. 2. 2. 2. 2. 2. 2. 2. 2. 2. 2. 2. 2. 2. 2. 2.
 2. 2. 2. 2. 2. 2. 2. 2. 2. 2. 2. 2. 2. 2. 2. 2. 2. 2. 2. 2. 2. 2. 2. 2.
 2. 2. 2. 2. 2. 2. 2. 2. 2. 2. 2. 2. 2. 2. 2. 2. 2. 2. 2. 2. 2. 2. 2. 2.
 2. 2. 2. 2. 2. 2. 2.]
cycle= 2 E= -1226.41138756574  delta_E= 8.82e-08  |g|= 0.000534  |ddm|= 0.000933
HOMO:  -0.159943450670219 LUMO:  -0.09512900199918659
Fermi energy:      -0.1599434507
[2. 2. 2. 2. 2. 2. 2. 2. 2. 2. 2. 2. 2. 2. 2. 2. 2. 2. 2. 2. 2. 2. 2. 2.
 2. 2. 2. 2. 2. 2. 2. 2. 2. 2. 2. 2. 2. 2. 2. 2. 2. 2. 2. 2. 2. 2. 2. 2.
 2. 2. 2. 2. 2. 2. 2. 2. 2. 2. 2. 2. 2. 2. 2. 2. 2. 2. 2. 2. 2. 2. 2. 2.
 2. 2. 2. 2. 2. 2. 2. 2. 2. 2. 2. 2. 2. 2. 2. 2. 2. 2. 2. 2. 2. 2. 2. 2.
 2. 2. 2. 2. 2. 2. 2.]
cycle= 3 E= -1226.41138766132  delta_E= -9.56e-08  |g|= 7.76e-05  |ddm|= 0.000758
HOMO:  -0.15994475593456178 LUMO:  -0.09512981237947496
Fermi energy:      -0.1599447559
[2. 2. 2. 2. 2. 2. 2. 2. 2. 2. 2. 2. 2. 2. 2. 2. 2. 2. 2. 2. 2. 2. 2. 2.
 2. 2. 2. 2. 2. 2. 2. 2. 2. 2. 2. 2. 2. 2. 2. 2. 2. 2. 2. 2. 2. 2. 2. 2.
 2. 2. 2. 2. 2. 2. 2. 2. 2. 2. 2. 2. 2. 2. 2. 2. 2. 2. 2. 2. 2. 2. 2. 2.
 2. 2. 2. 2. 2. 2. 2. 2. 2. 2. 2. 2. 2. 2. 2. 2. 2. 2. 2. 2. 2. 2. 2. 2.
 2. 2. 2. 2. 2. 2. 2.]
cycle= 4 E= -1226.41138766278  delta_E= -1.47e-09  |g|= 4.05e-05  |ddm|= 0.000139
HOMO:  -0.1599445004197724 LUMO:  -0.09512947419352104
Fermi energy:      -0.1599445004
[2. 2. 2. 2. 2. 2. 2. 2. 2. 2. 2. 2. 2. 2. 2. 2. 2. 2. 2. 2. 2. 2. 2. 2.
 2. 2. 2. 2. 2. 2. 2. 2. 2. 2. 2. 2. 2. 2. 2. 2. 2. 2. 2. 2. 2. 2. 2. 2.
 2. 2. 2. 2. 2. 2. 2. 2. 2. 2. 2. 2. 2. 2. 2. 2. 2. 2. 2. 2. 2. 2. 2. 2.
 2. 2. 2. 2. 2. 2. 2. 2. 2. 2. 2. 2. 2. 2. 2. 2. 2. 2. 2. 2. 2. 2. 2. 2.
 2. 2. 2. 2. 2. 2. 2.]
cycle= 5 E= -1226.41138766326  delta_E= -4.81e-10  |g|= 5.05e-06  |ddm|= 5.27e-05
HOMO:  -0.15994440704302287 LUMO:  -0.09512939551640882
Fermi energy:      -0.1599444070
[2. 2. 2. 2. 2. 2. 2. 2. 2. 2. 2. 2. 2. 2. 2. 2. 2. 2. 2. 2. 2. 2. 2. 2.
 2. 2. 2. 2. 2. 2. 2. 2. 2. 2. 2. 2. 2. 2. 2. 2. 2. 2. 2. 2. 2. 2. 2. 2.
 2. 2. 2. 2. 2. 2. 2. 2. 2. 2. 2. 2. 2. 2. 2. 2. 2. 2. 2. 2. 2. 2. 2. 2.
 2. 2. 2. 2. 2. 2. 2. 2. 2. 2. 2. 2. 2. 2. 2. 2. 2. 2. 2. 2. 2. 2. 2. 2.
 2. 2. 2. 2. 2. 2. 2.]
Extra cycle  E= -1226.41138766322  delta_E= 4.55e-11  |g|= 1.35e-05  |ddm|= 2.45e-05
converged SCF energy = -1226.41138766322


******** <class 'pyscf.lo.pipek.PipekMezey'> flags ********
conv_tol = 1e-06
conv_tol_grad = None
max_cycle = 100
max_stepsize = 0.05
max_iters = 20
kf_interval = 5
kf_trust_region = 5
ah_start_tol = 1000000000.0
ah_start_cycle = 1
ah_level_shift = 0
ah_conv_tol = 1e-12
ah_lindep = 1e-14
ah_max_cycle = 40
ah_trust_region = 3
init_guess = atomic
pop_method = meta_lowdin
Set conv_tol_grad to 0.000316228
macro= 1  f(x)= 25.71679711957  delta_f= 25.7168  |g|= 2.33836  4 KF 20 Hx
macro= 2  f(x)= 27.788449935077  delta_f= 2.07165  |g|= 1.53798  3 KF 20 Hx
macro= 3  f(x)= 30.062086506606  delta_f= 2.27364  |g|= 0.750211  4 KF 20 Hx
macro= 4  f(x)= 33.316976446669  delta_f= 3.25489  |g|= 1.74193  4 KF 20 Hx
macro= 5  f(x)= 36.066239430592  delta_f= 2.74926  |g|= 1.90422  3 KF 20 Hx
macro= 6  f(x)= 37.653168140148  delta_f= 1.58693  |g|= 1.66737  3 KF 20 Hx
macro= 7  f(x)= 42.060946925071  delta_f= 4.40778  |g|= 1.11696  4 KF 20 Hx
macro= 8  f(x)= 44.536335190729  delta_f= 2.47539  |g|= 1.22319  4 KF 20 Hx
macro= 9  f(x)= 47.767391471625  delta_f= 3.23106  |g|= 1.20608  4 KF 20 Hx
macro= 10  f(x)= 52.681066615991  delta_f= 4.91368  |g|= 1.36128  4 KF 20 Hx
macro= 11  f(x)= 57.66450821161  delta_f= 4.98344  |g|= 1.36415  4 KF 20 Hx
macro= 12  f(x)= 59.764975679554  delta_f= 2.10047  |g|= 1.18477  4 KF 20 Hx
macro= 13  f(x)= 63.147127102017  delta_f= 3.38215  |g|= 0.993217  4 KF 20 Hx
macro= 14  f(x)= 63.894391633664  delta_f= 0.747265  |g|= 0.651403  3 KF 20 Hx
macro= 15  f(x)= 64.198388661872  delta_f= 0.303997  |g|= 0.213546  4 KF 23 Hx
macro= 16  f(x)= 64.334336564763  delta_f= 0.135948  |g|= 0.0623356  3 KF 9 Hx
macro= 17  f(x)= 64.336121346025  delta_f= 0.00178478  |g|= 0.00042927  3 KF 9 Hx
macro= 18  f(x)= 64.336121346026  delta_f= 9.09495e-13  |g|= 3.54968e-05  1 KF 1 Hx
macro X = 18  f(x)= 64.336121346026  |g|= 3.54968e-05  36 intor 63 KF 322 Hx
  sorted Mulliken popupaltion: 1.0 for fully occupied
1.013509e+00 1.012446e+00 1.012090e+00 1.009033e+00 1.007975e+00 
1.006154e+00 1.004438e+00 1.002968e+00 1.002732e+00 1.002128e+00 
1.001157e+00 1.000966e+00 1.000732e+00 1.000605e+00 1.000597e+00 
1.000578e+00 1.000502e+00 1.000332e+00 1.000324e+00 1.000316e+00 
1.000119e+00 1.000118e+00 1.000118e+00 1.000115e+00 1.000111e+00 
1.000058e+00 1.000053e+00 1.000052e+00 1.000037e+00 1.000029e+00 
1.000019e+00 1.000017e+00 1.000014e+00 1.000001e+00 1.000000e+00 
1.000000e+00 1.000000e+00 1.000000e+00 1.000000e+00 9.999999e-01 
9.999999e-01 9.999998e-01 9.999995e-01 9.999971e-01 9.999971e-01 
9.999953e-01 9.999951e-01 9.999829e-01 9.999729e-01 9.999707e-01 
9.999581e-01 9.999338e-01 9.999307e-01 9.999264e-01 9.998202e-01 
9.997527e-01 9.997458e-01 9.997184e-01 9.996718e-01 9.996519e-01 
9.995280e-01 9.995085e-01 9.994506e-01 9.994060e-01 9.993465e-01 
9.993315e-01 9.990730e-01 9.987228e-01 9.987118e-01 9.986167e-01 
9.982972e-01 9.981142e-01 9.969396e-01 9.957044e-01 9.956878e-01 
9.955629e-01 9.954999e-01 9.950452e-01 9.931857e-01 9.917344e-01 
9.908736e-01 9.908241e-01 9.906597e-01 9.903556e-01 9.776652e-01 
9.748806e-01 9.722831e-01 5.535115e-01 5.437508e-01 5.149883e-01 
5.102867e-01 5.020634e-01 4.994233e-01 3.931992e-01 3.386846e-01 
3.380104e-01 1.873442e-03 1.814163e-03 7.111350e-04 -2.787407e-04 
-1.761553e-02 -2.126980e-02 -2.215196e-02 
87 enviroment orbitals kept frozen.
rks_ao.ne_frozen =  174


******** <class 'pydmfet.qcwrap.pyscf_rks_ao.rks_ao'> flags ********
method = rks_ao-RKS-RHF
initial guess = minao
damping factor = 0
level shift factor = 0
DIIS = <class 'pyscf.scf.diis.CDIIS'>
DIIS start cycle = 1
DIIS space = 8
SCF tol = 1e-09
SCF gradient tol = None
max. SCF cycles = 50
direct_scf = False
chkfile to save SCF result = /tigress/xingz/pydmfet/examples/proj/graphene/tmpdx2u8gkg
max_memory 16000 MB (current use 541 MB)
XC functionals = pbe,pbe
small_rho_cutoff = 1e-07
radial grids: 
    Treutler-Ahlrichs (JCP 102, 346 (M4)) radial grids
    
becke partition: Becke, JCP, 88, 2547 (1988)
pruning grids: <function nwchem_prune at 0x2b382fa619d8>
grids dens level: 3
symmetrized grids: False
atomic radii adjust function: <function treutler_atomic_radii_adjust at 0x2b382fa61950>
Set gradient conv threshold to 3.16228e-05
tot grids = 585200
init E= -1226.41139603381
HOMO:  -0.2549913734705986 LUMO:  -0.09512961573055832
Fermi energy:      -0.2549913735
[2. 2. 2. 2. 2. 2. 2. 2. 2. 2. 2. 2. 2. 2. 2. 2.]
cycle= 1 E= -1226.41138768217  delta_E= 8.35e-06  |g|= 1.04e-05  |ddm|= 14.8
HOMO:  -0.25499295634885594 LUMO:  -0.0951296342330152
Fermi energy:      -0.2549929563
[2. 2. 2. 2. 2. 2. 2. 2. 2. 2. 2. 2. 2. 2. 2. 2.]
cycle= 2 E= -1226.41138768553  delta_E= -3.36e-09  |g|= 1.94e-05  |ddm|= 14.8
HOMO:  -0.254991870468221 LUMO:  -0.09512959644488679
Fermi energy:      -0.2549918705
[2. 2. 2. 2. 2. 2. 2. 2. 2. 2. 2. 2. 2. 2. 2. 2.]
cycle= 3 E= -1226.41138768403  delta_E= 1.5e-09  |g|= 1.43e-06  |ddm|= 14.8
HOMO:  -0.25499193950222515 LUMO:  -0.09512960486114641
Fermi energy:      -0.2549919395
[2. 2. 2. 2. 2. 2. 2. 2. 2. 2. 2. 2. 2. 2. 2. 2.]
cycle= 4 E= -1226.41138767937  delta_E= 4.67e-09  |g|= 7.06e-07  |ddm|= 14.8
HOMO:  -0.2549919331299239 LUMO:  -0.09512960469276303
Fermi energy:      -0.2549919331
[2. 2. 2. 2. 2. 2. 2. 2. 2. 2. 2. 2. 2. 2. 2. 2.]
cycle= 5 E= -1226.4113876809  delta_E= -1.54e-09  |g|= 7.13e-07  |ddm|= 14.8
HOMO:  -0.2549919322758995 LUMO:  -0.09512960482236407
Fermi energy:      -0.2549919323
[2. 2. 2. 2. 2. 2. 2. 2. 2. 2. 2. 2. 2. 2. 2. 2.]
cycle= 6 E= -1226.41138767926  delta_E= 1.65e-09  |g|= 8.3e-07  |ddm|= 14.8
HOMO:  -0.2549919331085548 LUMO:  -0.09512960592955706
Fermi energy:      -0.2549919331
[2. 2. 2. 2. 2. 2. 2. 2. 2. 2. 2. 2. 2. 2. 2. 2.]
cycle= 7 E= -1226.41138768159  delta_E= -2.34e-09  |g|= 6.9e-07  |ddm|= 14.8
HOMO:  -0.2549919316562824 LUMO:  -0.09512960518385394
Fermi energy:      -0.2549919317
[2. 2. 2. 2. 2. 2. 2. 2. 2. 2. 2. 2. 2. 2. 2. 2.]
cycle= 8 E= -1226.41138767972  delta_E= 1.88e-09  |g|= 7.27e-07  |ddm|= 14.8
HOMO:  -0.2549919316593428 LUMO:  -0.09512960724027121
Fermi energy:      -0.2549919317
[2. 2. 2. 2. 2. 2. 2. 2. 2. 2. 2. 2. 2. 2. 2. 2.]
cycle= 9 E= -1226.41138768215  delta_E= -2.43e-09  |g|= 6.92e-07  |ddm|= 14.8
HOMO:  -0.2549919314258746 LUMO:  -0.09512960593440387
Fermi energy:      -0.2549919314
[2. 2. 2. 2. 2. 2. 2. 2. 2. 2. 2. 2. 2. 2. 2. 2.]
cycle= 10 E= -1226.41138767935  delta_E= 2.8e-09  |g|= 7.89e-07  |ddm|= 14.8
HOMO:  -0.25499193156445843 LUMO:  -0.09512960636603264
Fermi energy:      -0.2549919316
[2. 2. 2. 2. 2. 2. 2. 2. 2. 2. 2. 2. 2. 2. 2. 2.]
cycle= 11 E= -1226.4113876806  delta_E= -1.24e-09  |g|= 7.39e-07  |ddm|= 14.8
HOMO:  -0.25499193139821585 LUMO:  -0.09512960710847235
Fermi energy:      -0.2549919314
[2. 2. 2. 2. 2. 2. 2. 2. 2. 2. 2. 2. 2. 2. 2. 2.]
cycle= 12 E= -1226.41138768173  delta_E= -1.13e-09  |g|= 6.73e-07  |ddm|= 14.8
HOMO:  -0.2549919319980531 LUMO:  -0.09512960603452515
Fermi energy:      -0.2549919320
[2. 2. 2. 2. 2. 2. 2. 2. 2. 2. 2. 2. 2. 2. 2. 2.]
cycle= 13 E= -1226.41138768029  delta_E= 1.44e-09  |g|= 7.24e-07  |ddm|= 14.8
HOMO:  -0.2549919334977597 LUMO:  -0.09512960609884828
Fermi energy:      -0.2549919335
[2. 2. 2. 2. 2. 2. 2. 2. 2. 2. 2. 2. 2. 2. 2. 2.]
cycle= 14 E= -1226.41138768296  delta_E= -2.67e-09  |g|= 7.33e-07  |ddm|= 14.8
HOMO:  -0.2549919321990939 LUMO:  -0.0951296064649069
Fermi energy:      -0.2549919322
[2. 2. 2. 2. 2. 2. 2. 2. 2. 2. 2. 2. 2. 2. 2. 2.]
cycle= 15 E= -1226.41138768146  delta_E= 1.5e-09  |g|= 7.39e-07  |ddm|= 14.8
HOMO:  -0.25499193132005415 LUMO:  -0.0951296068620073
Fermi energy:      -0.2549919313
[2. 2. 2. 2. 2. 2. 2. 2. 2. 2. 2. 2. 2. 2. 2. 2.]
cycle= 16 E= -1226.41138768078  delta_E= 6.81e-10  |g|= 7.38e-07  |ddm|= 14.8
HOMO:  -0.2549919322790719 LUMO:  -0.09512960506810554
Fermi energy:      -0.2549919323
[2. 2. 2. 2. 2. 2. 2. 2. 2. 2. 2. 2. 2. 2. 2. 2.]
Extra cycle  E= -1226.41138768066  delta_E= 1.18e-10  |g|= 7.03e-07  |ddm|= 14.8
converged SCF energy = -1226.41138768066
<class 'pydmfet.qcwrap.pyscf_rks_ao.rks_ao'> does not have attributes  vext_1e ne_frozen coredm add_coredm_ext_energy
level shift energy: 3.315567290163024e-08
|P_frag + P_bath - P_ref| / N =  6.715493408665242e-08
max(P_frag + P_bath - P_ref) =  1.734226802750389e-06
