#INFO: **** input file is /tigress/xingz/pydmfet/examples/proj/graphene/graphene.py ****
from pydmfet import proj_ao
from pydmfet.qcwrap.pyscf_rks_ao import rks_ao
from pyscf import gto,scf
import numpy as np
from pyscf.tools import molden
from pyscf import lo
from pyscf.lo import iao,orth
from functools import reduce
import math

bas ='6-31G*'
temp = 0.00

mol = gto.Mole()
mol.atom = open('graphene.xyz').read()
mol.basis = bas
mol.charge = 0
mol.build(max_memory = 16000, verbose=4)

_, mo_energy, mo_coeff, mo_occ, irrep_labels, spins = molden.load("graphene_mo.molden")

#mf = scf.RKS(mol)
mf = rks_ao(mol,smear_sigma = temp)
mf.xc = "pbe,pbe"
mf.max_cycle = 100

mf.mo_energy = mo_energy
mf.mo_occ = mo_occ
mf.mo_coeff = mo_coeff

DMguess = mf.make_rdm1()
#DMguess=None
mf.scf(dm0=DMguess)

'''
with open( 'graphene_mo.molden', 'w' ) as thefile:
    molden.header(mol, thefile)
    molden.orbital_coeff(mol, thefile, mf.mo_coeff,ene=mf.mo_energy,occ=mf.mo_occ)
'''

natoms = mol.natm
impAtom = np.zeros([natoms], dtype=int)
impAtom[11-1] = 1
impAtom[18-1] = 1
impAtom[20-1] = 1
impAtom[46-1] = 1

embed = proj_ao.proj_embed(mf,impAtom, Ne_env = 176)
embed.pop_method = 'meta_lowdin'
embed.pm_exponent = 2
embed.make_frozen_orbs(norb = 103)

embed.embedding_potential()
#INFO: ******************** input file end ********************


System: uname_result(system='Linux', node='tigercpu.princeton.edu', release='3.10.0-957.21.2.el7.x86_64', version='#1 SMP Tue Jun 4 15:19:05 EDT 2019', machine='x86_64', processor='x86_64')  Threads 40
Python 3.7.0 (default, Jun 28 2018, 13:15:42) 
[GCC 7.2.0]
numpy 1.16.4  scipy 1.4.0.dev0+0f78e0f
Date: Fri Jul  5 02:30:28 2019
PySCF version 1.5
PySCF path  /home/xingz/.local/lib/python3.7/site-packages/pyscf

[CONFIG] conf_file None
[INPUT] verbose = 4
[INPUT] num. atoms = 46
[INPUT] num. electrons = 206
[INPUT] charge = 0
[INPUT] spin (= nelec alpha-beta = 2S) = 0
[INPUT] symmetry False subgroup None
[INPUT] Mole.unit = angstrom
[INPUT]  1 C     -3.699040000000  -2.181640000000   0.011830000000 AA   -6.990172523811  -4.122702102396   0.022355460054 Bohr
[INPUT]  2 C     -4.895100000000   0.018480000000   0.009500000000 AA   -9.250398352358   0.034922138782   0.017952398183 Bohr
[INPUT]  3 C     -2.357390000000  -2.847420000000   0.012640000000 AA   -4.454821468788  -5.380843961609   0.023886138215 Bohr
[INPUT]  4 C     -1.214900000000  -2.132120000000   0.012020000000 AA   -2.295828268734  -4.029122864708   0.022714508017 Bohr
[INPUT]  5 C     -3.686920000000  -0.685680000000   0.010330000000 AA   -6.967269043181  -1.295747409092   0.019520870867 Bohr
[INPUT]  6 C     -2.457720000000   0.006110000000   0.009750000000 AA   -4.644417690866   0.011546226621   0.018424829715 Bohr
[INPUT]  7 C     -4.894810000000   1.411880000000   0.008100000000 AA   -9.249850331782   2.668066520751   0.015306781609 Bohr
[INPUT]  8 C     -3.686330000000   2.115530000000   0.007510000000 AA   -6.966154104768   3.997772308301   0.014191843195 Bohr
[INPUT]  9 C      0.014890000000  -2.811070000000   0.012820000000 AA    0.028138021995  -5.312152416981   0.024226288917 Bohr
[INPUT] 10 C      1.223450000000  -2.107210000000   0.012210000000 AA    2.311985427099  -3.982049786945   0.023073555981 Bohr
[INPUT] 11 C     -1.235780000000  -0.709260000000   0.010580000000 AA   -2.335285750215  -1.340307151109   0.019993302398 Bohr
[INPUT] 12 C     -2.457420000000   1.423230000000   0.008320000000 AA   -4.643850773029   2.689514912265   0.015722521356 Bohr
[INPUT] 13 C     -1.235180000000   2.138080000000   0.007710000000 AA   -2.334151914540   4.040385632410   0.014569788420 Bohr
[INPUT] 14 C     -3.697820000000   3.611500000000   0.006010000000 AA   -6.987867057939   6.824745898867   0.011357254009 Bohr
[INPUT] 15 C     -2.355890000000   4.276710000000   0.005460000000 AA   -4.451986879602   8.081810614189   0.010317904640 Bohr
[INPUT] 16 C      2.446210000000  -2.796570000000   0.013020000000 AA    4.622666943172  -5.284751388175   0.024604234142 Bohr
[INPUT] 17 C      3.654900000000  -2.096460000000   0.012400000000 AA    6.906760012673  -3.961735231106   0.023432603945 Bohr
[INPUT] 18 C      1.213100000000  -0.696260000000   0.010780000000 AA    2.292426761710  -1.315740711490   0.020371247623 Bohr
[INPUT] 19 C      2.435460000000   0.009360000000   0.010170000000 AA    4.602352387333   0.017687836526   0.019218514687 Bohr
[INPUT] 20 C     -0.013850000000   1.422030000000   0.008540000000 AA   -0.026172706825   2.687247240915   0.016138261104 Bohr
[INPUT] 21 C      1.213690000000   2.124060000000   0.007930000000 AA    2.293541700123   4.013891672144   0.014985528168 Bohr
[INPUT] 22 C     -1.213700000000   3.560940000000   0.006280000000 AA   -2.293560597385   6.729201346009   0.011867480062 Bohr
[INPUT] 23 C      0.016370000000   4.239370000000   0.005690000000 AA    0.030934816659   8.011248240697   0.010752541649 Bohr
[INPUT] 24 C      3.661140000000  -0.695090000000   0.010980000000 AA    6.918551903690  -1.313529731924   0.020749192848 Bohr
[INPUT] 25 C      4.871090000000   0.014370000000   0.010350000000 AA    9.205026028108   0.027155364410   0.019558665389 Bohr
[INPUT] 26 C      2.435750000000   1.417930000000   0.008740000000 AA    4.602900407909   2.679499363805   0.016516206329 Bohr
[INPUT] 27 C      3.661730000000   2.121860000000   0.008120000000 AA    6.919666842104   4.009734274670   0.015344576131 Bohr
[INPUT] 28 C      1.224630000000   3.535000000000   0.006500000000 AA    2.314215303926   6.680181850337   0.012283219810 Bohr
[INPUT] 29 C      2.447680000000   4.223840000000   0.005900000000 AA    4.625444840575   7.981900793983   0.011149384135 Bohr
[INPUT] 30 C      4.871380000000   1.411900000000   0.008930000000 AA    9.205574048684   2.668104315273   0.016875254292 Bohr
[INPUT] 31 C      3.656080000000   3.523230000000   0.006700000000 AA    6.908989889500   6.657939773851   0.012661165035 Bohr
[INPUT] 32 H     -4.639710000000  -2.771750000000   0.012340000000 AA   -8.767781197406  -5.237848385763   0.023319220377 Bohr
[INPUT] 33 H     -5.839230000000  -0.512350000000   0.009950000000 AA  -11.034545478344  -0.968201179921   0.018802774939 Bohr
[INPUT] 34 H     -2.335290000000  -3.934260000000   0.013740000000 AA   -4.413058521436  -7.434673902831   0.025964836952 Bohr
[INPUT] 35 H     -5.838710000000   1.943100000000   0.007480000000 AA  -11.033562820759   3.671926832642   0.014135151412 Bohr
[INPUT] 36 H      0.034450000000  -3.896600000000   0.013920000000 AA    0.065101064991  -7.363506816980   0.026304987654 Bohr
[INPUT] 37 H     -4.638240000000   4.202010000000   0.005330000000 AA   -8.765003300003   7.940648072684   0.010072240244 Bohr
[INPUT] 38 H     -2.333340000000   5.363550000000   0.004360000000 AA   -4.409373555493  10.135640555411   0.008239205903 Bohr
[INPUT] 39 H      2.468170000000  -3.879980000000   0.014120000000 AA    4.664165328868  -7.332099568790   0.026682932879 Bohr
[INPUT] 40 H      4.585330000000  -2.651820000000   0.013040000000 AA    8.665017890752  -5.011213531644   0.024642028664 Bohr
[INPUT] 41 H      0.036380000000   5.324900000000   0.004600000000 AA    0.068748236412  10.062602640696   0.008692740173 Bohr
[INPUT] 42 H      5.818200000000  -0.512040000000   0.010960000000 AA   10.994804537944  -0.967615364822   0.020711398325 Bohr
[INPUT] 43 H      2.470100000000   5.307250000000   0.004810000000 AA    4.667812500288  10.029248974598   0.009089582659 Bohr
[INPUT] 44 H      5.818720000000   1.937900000000   0.008470000000 AA   10.995787195529   3.662100256795   0.016005980275 Bohr
[INPUT] 45 H      4.586750000000   4.078200000000   0.006210000000 AA    8.667701301849   7.706681081201   0.011735199234 Bohr
[INPUT] 46 C     -0.014150000000   0.006290000000   0.009970000000 AA   -0.026739624663   0.011886377324   0.018840569462 Bohr

nuclear repulsion = 2866.24058346546
number of shells = 220
number of NR pGTOs = 920
number of NR cGTOs = 476
basis = 6-31G*
ecp = {}
CPU time:         4.27
rks_ao.ne_frozen =  0


******** <class 'pydmfet.qcwrap.pyscf_rks_ao.rks_ao'> flags ********
method = rks_ao-RKS-RHF
initial guess = minao
damping factor = 0
level shift factor = 0
DIIS = <class 'pyscf.scf.diis.CDIIS'>
DIIS start cycle = 1
DIIS space = 8
SCF tol = 1e-09
SCF gradient tol = None
max. SCF cycles = 100
direct_scf = False
chkfile to save SCF result = /tigress/xingz/pydmfet/examples/proj/graphene/tmpvbfxbdym
max_memory 16000 MB (current use 80 MB)
XC functionals = pbe,pbe
small_rho_cutoff = 1e-07
radial grids: 
    Treutler-Ahlrichs (JCP 102, 346 (M4)) radial grids
    
becke partition: Becke, JCP, 88, 2547 (1988)
pruning grids: <function nwchem_prune at 0x2b6a3cc099d8>
grids dens level: 3
symmetrized grids: False
atomic radii adjust function: <function treutler_atomic_radii_adjust at 0x2b6a3cc09950>
Set gradient conv threshold to 3.16228e-05
tot grids = 585200
init E= -1226.41118584618
HOMO:  -0.15994381172681982 LUMO:  -0.09512710757014005
Fermi energy:      -0.1599438117
[2. 2. 2. 2. 2. 2. 2. 2. 2. 2. 2. 2. 2. 2. 2. 2. 2. 2. 2. 2. 2. 2. 2. 2.
 2. 2. 2. 2. 2. 2. 2. 2. 2. 2. 2. 2. 2. 2. 2. 2. 2. 2. 2. 2. 2. 2. 2. 2.
 2. 2. 2. 2. 2. 2. 2. 2. 2. 2. 2. 2. 2. 2. 2. 2. 2. 2. 2. 2. 2. 2. 2. 2.
 2. 2. 2. 2. 2. 2. 2. 2. 2. 2. 2. 2. 2. 2. 2. 2. 2. 2. 2. 2. 2. 2. 2. 2.
 2. 2. 2. 2. 2. 2. 2.]
cycle= 1 E= -1226.41138765396  delta_E= -0.000202  |g|= 0.000172  |ddm|= 0.00321
HOMO:  -0.1599496895578648 LUMO:  -0.09513601717191507
Fermi energy:      -0.1599496896
[2. 2. 2. 2. 2. 2. 2. 2. 2. 2. 2. 2. 2. 2. 2. 2. 2. 2. 2. 2. 2. 2. 2. 2.
 2. 2. 2. 2. 2. 2. 2. 2. 2. 2. 2. 2. 2. 2. 2. 2. 2. 2. 2. 2. 2. 2. 2. 2.
 2. 2. 2. 2. 2. 2. 2. 2. 2. 2. 2. 2. 2. 2. 2. 2. 2. 2. 2. 2. 2. 2. 2. 2.
 2. 2. 2. 2. 2. 2. 2. 2. 2. 2. 2. 2. 2. 2. 2. 2. 2. 2. 2. 2. 2. 2. 2. 2.
 2. 2. 2. 2. 2. 2. 2.]
cycle= 2 E= -1226.41138756574  delta_E= 8.82e-08  |g|= 0.000534  |ddm|= 0.000933
HOMO:  -0.1599434506702227 LUMO:  -0.0951290019991915
Fermi energy:      -0.1599434507
[2. 2. 2. 2. 2. 2. 2. 2. 2. 2. 2. 2. 2. 2. 2. 2. 2. 2. 2. 2. 2. 2. 2. 2.
 2. 2. 2. 2. 2. 2. 2. 2. 2. 2. 2. 2. 2. 2. 2. 2. 2. 2. 2. 2. 2. 2. 2. 2.
 2. 2. 2. 2. 2. 2. 2. 2. 2. 2. 2. 2. 2. 2. 2. 2. 2. 2. 2. 2. 2. 2. 2. 2.
 2. 2. 2. 2. 2. 2. 2. 2. 2. 2. 2. 2. 2. 2. 2. 2. 2. 2. 2. 2. 2. 2. 2. 2.
 2. 2. 2. 2. 2. 2. 2.]
cycle= 3 E= -1226.41138766132  delta_E= -9.56e-08  |g|= 7.76e-05  |ddm|= 0.000758
HOMO:  -0.1599447559345814 LUMO:  -0.09512981237949762
Fermi energy:      -0.1599447559
[2. 2. 2. 2. 2. 2. 2. 2. 2. 2. 2. 2. 2. 2. 2. 2. 2. 2. 2. 2. 2. 2. 2. 2.
 2. 2. 2. 2. 2. 2. 2. 2. 2. 2. 2. 2. 2. 2. 2. 2. 2. 2. 2. 2. 2. 2. 2. 2.
 2. 2. 2. 2. 2. 2. 2. 2. 2. 2. 2. 2. 2. 2. 2. 2. 2. 2. 2. 2. 2. 2. 2. 2.
 2. 2. 2. 2. 2. 2. 2. 2. 2. 2. 2. 2. 2. 2. 2. 2. 2. 2. 2. 2. 2. 2. 2. 2.
 2. 2. 2. 2. 2. 2. 2.]
cycle= 4 E= -1226.41138766278  delta_E= -1.46e-09  |g|= 4.05e-05  |ddm|= 0.000139
HOMO:  -0.15994450041978528 LUMO:  -0.0951294741935384
Fermi energy:      -0.1599445004
[2. 2. 2. 2. 2. 2. 2. 2. 2. 2. 2. 2. 2. 2. 2. 2. 2. 2. 2. 2. 2. 2. 2. 2.
 2. 2. 2. 2. 2. 2. 2. 2. 2. 2. 2. 2. 2. 2. 2. 2. 2. 2. 2. 2. 2. 2. 2. 2.
 2. 2. 2. 2. 2. 2. 2. 2. 2. 2. 2. 2. 2. 2. 2. 2. 2. 2. 2. 2. 2. 2. 2. 2.
 2. 2. 2. 2. 2. 2. 2. 2. 2. 2. 2. 2. 2. 2. 2. 2. 2. 2. 2. 2. 2. 2. 2. 2.
 2. 2. 2. 2. 2. 2. 2.]
cycle= 5 E= -1226.41138766326  delta_E= -4.82e-10  |g|= 5.05e-06  |ddm|= 5.27e-05
HOMO:  -0.15994440704300703 LUMO:  -0.09512939551639155
Fermi energy:      -0.1599444070
[2. 2. 2. 2. 2. 2. 2. 2. 2. 2. 2. 2. 2. 2. 2. 2. 2. 2. 2. 2. 2. 2. 2. 2.
 2. 2. 2. 2. 2. 2. 2. 2. 2. 2. 2. 2. 2. 2. 2. 2. 2. 2. 2. 2. 2. 2. 2. 2.
 2. 2. 2. 2. 2. 2. 2. 2. 2. 2. 2. 2. 2. 2. 2. 2. 2. 2. 2. 2. 2. 2. 2. 2.
 2. 2. 2. 2. 2. 2. 2. 2. 2. 2. 2. 2. 2. 2. 2. 2. 2. 2. 2. 2. 2. 2. 2. 2.
 2. 2. 2. 2. 2. 2. 2.]
Extra cycle  E= -1226.41138766321  delta_E= 4.91e-11  |g|= 1.35e-05  |ddm|= 2.45e-05
converged SCF energy = -1226.41138766321


******** <class 'pyscf.lo.pipek.PipekMezey'> flags ********
conv_tol = 1e-06
conv_tol_grad = None
max_cycle = 100
max_stepsize = 0.05
max_iters = 20
kf_interval = 5
kf_trust_region = 5
ah_start_tol = 1000000000.0
ah_start_cycle = 1
ah_level_shift = 0
ah_conv_tol = 1e-12
ah_lindep = 1e-14
ah_max_cycle = 40
ah_trust_region = 3
init_guess = atomic
pop_method = meta_lowdin
Set conv_tol_grad to 0.000316228
macro= 1  f(x)= 25.716797525282  delta_f= 25.7168  |g|= 2.33836  4 KF 20 Hx
macro= 2  f(x)= 27.788449019012  delta_f= 2.07165  |g|= 1.53798  3 KF 20 Hx
macro= 3  f(x)= 28.31592760794  delta_f= 0.527479  |g|= 1.13812  4 KF 20 Hx
macro= 4  f(x)= 30.20312250491  delta_f= 1.88719  |g|= 0.805753  4 KF 20 Hx
macro= 5  f(x)= 34.84097322083  delta_f= 4.63785  |g|= 1.01506  4 KF 20 Hx
macro= 6  f(x)= 37.778039585937  delta_f= 2.93707  |g|= 1.36933  4 KF 20 Hx
macro= 7  f(x)= 44.285000869106  delta_f= 6.50696  |g|= 1.36554  4 KF 20 Hx
macro= 8  f(x)= 50.474005864166  delta_f= 6.189  |g|= 1.42014  4 KF 20 Hx
macro= 9  f(x)= 54.937090375955  delta_f= 4.46308  |g|= 1.14396  4 KF 20 Hx
macro= 10  f(x)= 56.073707109862  delta_f= 1.13662  |g|= 0.851454  3 KF 20 Hx
macro= 11  f(x)= 56.820112091095  delta_f= 0.746405  |g|= 0.609052  3 KF 20 Hx
macro= 12  f(x)= 57.074772790048  delta_f= 0.254661  |g|= 0.194038  3 KF 12 Hx
macro= 13  f(x)= 57.301245748259  delta_f= 0.226473  |g|= 0.158815  4 KF 23 Hx
macro= 14  f(x)= 57.335690084829  delta_f= 0.0344443  |g|= 0.0268698  3 KF 6 Hx
macro= 15  f(x)= 57.336398565887  delta_f= 0.000708481  |g|= 0.00240899  3 KF 13 Hx
macro= 16  f(x)= 57.336429076264  delta_f= 3.05104e-05  |g|= 0.00267479  2 KF 10 Hx
macro= 17  f(x)= 57.336904942633  delta_f= 0.000475866  |g|= 0.00997065  1 KF 7 Hx
macro= 18  f(x)= 58.022031147851  delta_f= 0.685126  |g|= 0.426725  4 KF 21 Hx
macro= 19  f(x)= 58.844354825764  delta_f= 0.822324  |g|= 0.474175  4 KF 21 Hx
macro= 20  f(x)= 59.776844145571  delta_f= 0.932489  |g|= 0.335824  4 KF 22 Hx
macro= 21  f(x)= 59.840296989532  delta_f= 0.0634528  |g|= 0.0256059  3 KF 11 Hx
macro= 22  f(x)= 59.840151083482  delta_f= -0.000145906  |g|= 0.00359438  3 KF 10 Hx
macro= 23  f(x)= 59.840133846328  delta_f= -1.72372e-05  |g|= 0.000844627  3 KF 15 Hx
macro= 24  f(x)= 59.840133279339  delta_f= -5.66989e-07  |g|= 0.000215193  1 KF 4 Hx
macro X = 24  f(x)= 59.840133279339  |g|= 0.000215193  48 intor 79 KF 395 Hx
  sorted Mulliken popupaltion: 1.0 for fully occupied
1.013113e+00 1.012449e+00 1.012092e+00 1.009033e+00 1.007003e+00 
1.006259e+00 1.005157e+00 1.004850e+00 1.002954e+00 1.002732e+00 
1.002127e+00 1.001154e+00 1.000927e+00 1.000732e+00 1.000706e+00 
1.000597e+00 1.000509e+00 1.000502e+00 1.000332e+00 1.000324e+00 
1.000316e+00 1.000118e+00 1.000118e+00 1.000115e+00 1.000111e+00 
1.000047e+00 1.000042e+00 1.000035e+00 1.000031e+00 1.000029e+00 
1.000019e+00 1.000015e+00 1.000003e+00 1.000000e+00 1.000000e+00 
1.000000e+00 9.999995e-01 9.999994e-01 9.999993e-01 9.999986e-01 
9.999973e-01 9.999971e-01 9.999953e-01 9.999947e-01 9.999836e-01 
9.999807e-01 9.999763e-01 9.999733e-01 9.999706e-01 9.999574e-01 
9.999494e-01 9.999338e-01 9.999264e-01 9.997455e-01 9.997238e-01 
9.996716e-01 9.995543e-01 9.995282e-01 9.995084e-01 9.994595e-01 
9.994507e-01 9.994056e-01 9.993465e-01 9.993313e-01 9.990730e-01 
9.987227e-01 9.987116e-01 9.986449e-01 9.986363e-01 9.982972e-01 
9.981155e-01 9.961146e-01 9.957042e-01 9.956877e-01 9.955670e-01 
9.954989e-01 9.950453e-01 9.936198e-01 9.917375e-01 9.908733e-01 
9.908279e-01 9.907908e-01 9.903559e-01 9.776559e-01 9.748801e-01 
9.722817e-01 5.526318e-01 5.437545e-01 5.149955e-01 5.098497e-01 
5.020512e-01 5.011879e-01 5.008042e-01 4.983468e-01 3.931972e-01 
3.386898e-01 3.380091e-01 1.815170e-03 7.106649e-04 -2.785907e-04 
-1.761771e-02 -2.137364e-02 -2.205158e-02 
88 enviroment orbitals kept frozen.
rks_ao.ne_frozen =  176


******** <class 'pydmfet.qcwrap.pyscf_rks_ao.rks_ao'> flags ********
method = rks_ao-RKS-RHF
initial guess = minao
damping factor = 0
level shift factor = 0
DIIS = <class 'pyscf.scf.diis.CDIIS'>
DIIS start cycle = 1
DIIS space = 8
SCF tol = 1e-09
SCF gradient tol = None
max. SCF cycles = 50
direct_scf = False
chkfile to save SCF result = /tigress/xingz/pydmfet/examples/proj/graphene/tmpu95_5b4n
max_memory 16000 MB (current use 539 MB)
XC functionals = pbe,pbe
small_rho_cutoff = 1e-07
radial grids: 
    Treutler-Ahlrichs (JCP 102, 346 (M4)) radial grids
    
becke partition: Becke, JCP, 88, 2547 (1988)
pruning grids: <function nwchem_prune at 0x2b6a3cc099d8>
grids dens level: 3
symmetrized grids: False
atomic radii adjust function: <function treutler_atomic_radii_adjust at 0x2b6a3cc09950>
Set gradient conv threshold to 3.16228e-05
tot grids = 585200
init E= -1226.41140282347
HOMO:  -0.25499086385610376 LUMO:  -0.09512961493143841
Fermi energy:      -0.2549908639
[2. 2. 2. 2. 2. 2. 2. 2. 2. 2. 2. 2. 2. 2. 2.]
cycle= 1 E= -1226.41138769411  delta_E= 1.51e-05  |g|= 9.77e-06  |ddm|= 14.8
HOMO:  -0.25499237382398177 LUMO:  -0.0951296308083777
Fermi energy:      -0.2549923738
[2. 2. 2. 2. 2. 2. 2. 2. 2. 2. 2. 2. 2. 2. 2.]
cycle= 2 E= -1226.41138769514  delta_E= -1.03e-09  |g|= 1.72e-05  |ddm|= 14.8
HOMO:  -0.25499135828340724 LUMO:  -0.09512959175721573
Fermi energy:      -0.2549913583
[2. 2. 2. 2. 2. 2. 2. 2. 2. 2. 2. 2. 2. 2. 2.]
cycle= 3 E= -1226.41138769792  delta_E= -2.77e-09  |g|= 1.35e-06  |ddm|= 14.8
HOMO:  -0.25499142318519175 LUMO:  -0.09512960259521874
Fermi energy:      -0.2549914232
[2. 2. 2. 2. 2. 2. 2. 2. 2. 2. 2. 2. 2. 2. 2.]
cycle= 4 E= -1226.41138769724  delta_E= 6.73e-10  |g|= 8.19e-07  |ddm|= 14.8
HOMO:  -0.2549914073464137 LUMO:  -0.09512960247533936
Fermi energy:      -0.2549914073
[2. 2. 2. 2. 2. 2. 2. 2. 2. 2. 2. 2. 2. 2. 2.]
Extra cycle  E= -1226.41138769383  delta_E= 3.41e-09  |g|= 8.6e-07  |ddm|= 14.8
converged SCF energy = -1226.41138769383
<class 'pydmfet.qcwrap.pyscf_rks_ao.rks_ao'> does not have attributes  vext_1e add_coredm_ext_energy ne_frozen coredm
level shift energy: 2.1268566019472246e-08
|P_frag + P_bath - P_ref| / N =  7.901027826972324e-08
max(P_frag + P_bath - P_ref) =  2.549964530487725e-06
