#INFO: **** input file is /tigress/xingz/pydmfet/examples/proj/graphene/graphene.py ****
from pydmfet import proj_ao
from pydmfet.qcwrap.pyscf_rks_ao import rks_ao
from pyscf import gto,scf
import numpy as np
from pyscf.tools import molden
from pyscf import lo
from pyscf.lo import iao,orth
from functools import reduce
import math

bas ='6-31G*'
temp = 0.005

mol = gto.Mole()
mol.atom = open('graphene.xyz').read()
mol.basis = bas
mol.charge = 0
mol.build(max_memory = 16000, verbose=4)

#_, mo_energy, mo_coeff, mo_occ, irrep_labels, spins = molden.load("graphene_mo.molden")

#mf = scf.RKS(mol)
mf = rks_ao(mol,smear_sigma = temp)
mf.xc = "pbe,pbe"
mf.max_cycle = 100

'''
mf.mo_energy = mo_energy
mf.mo_occ = mo_occ
mf.mo_coeff = mo_coeff
'''

#DMguess = mf.make_rdm1()
DMguess=None
mf.scf(dm0=DMguess)

with open( 'graphene_mo.molden', 'w' ) as thefile:
    molden.header(mol, thefile)
    molden.orbital_coeff(mol, thefile, mf.mo_coeff,ene=mf.mo_energy,occ=mf.mo_occ)

exit()

natoms = mol.natm
impAtom = np.zeros([natoms], dtype=int)
impAtom[11-1] = 1
impAtom[18-1] = 1
impAtom[20-1] = 1


embed = proj_ao.proj_embed(mf,impAtom, Ne_env = 166)
embed.pop_method = 'meta_lowdin'
embed.pm_exponent = 2
embed.make_frozen_orbs(norb = 97)

embed.embedding_potential()
#INFO: ******************** input file end ********************


System: uname_result(system='Linux', node='tigercpu.princeton.edu', release='3.10.0-957.21.2.el7.x86_64', version='#1 SMP Tue Jun 4 15:19:05 EDT 2019', machine='x86_64', processor='x86_64')  Threads 40
Python 3.7.0 (default, Jun 28 2018, 13:15:42) 
[GCC 7.2.0]
numpy 1.16.4  scipy 1.4.0.dev0+0f78e0f
Date: Fri Jul  5 00:29:26 2019
PySCF version 1.5
PySCF path  /home/xingz/.local/lib/python3.7/site-packages/pyscf

[CONFIG] conf_file None
[INPUT] verbose = 4
[INPUT] num. atoms = 46
[INPUT] num. electrons = 206
[INPUT] charge = 0
[INPUT] spin (= nelec alpha-beta = 2S) = 0
[INPUT] symmetry False subgroup None
[INPUT] Mole.unit = angstrom
[INPUT]  1 C     -3.699040000000  -2.181640000000   0.011830000000 AA   -6.990172523811  -4.122702102396   0.022355460054 Bohr
[INPUT]  2 C     -4.895100000000   0.018480000000   0.009500000000 AA   -9.250398352358   0.034922138782   0.017952398183 Bohr
[INPUT]  3 C     -2.357390000000  -2.847420000000   0.012640000000 AA   -4.454821468788  -5.380843961609   0.023886138215 Bohr
[INPUT]  4 C     -1.214900000000  -2.132120000000   0.012020000000 AA   -2.295828268734  -4.029122864708   0.022714508017 Bohr
[INPUT]  5 C     -3.686920000000  -0.685680000000   0.010330000000 AA   -6.967269043181  -1.295747409092   0.019520870867 Bohr
[INPUT]  6 C     -2.457720000000   0.006110000000   0.009750000000 AA   -4.644417690866   0.011546226621   0.018424829715 Bohr
[INPUT]  7 C     -4.894810000000   1.411880000000   0.008100000000 AA   -9.249850331782   2.668066520751   0.015306781609 Bohr
[INPUT]  8 C     -3.686330000000   2.115530000000   0.007510000000 AA   -6.966154104768   3.997772308301   0.014191843195 Bohr
[INPUT]  9 C      0.014890000000  -2.811070000000   0.012820000000 AA    0.028138021995  -5.312152416981   0.024226288917 Bohr
[INPUT] 10 C      1.223450000000  -2.107210000000   0.012210000000 AA    2.311985427099  -3.982049786945   0.023073555981 Bohr
[INPUT] 11 C     -1.235780000000  -0.709260000000   0.010580000000 AA   -2.335285750215  -1.340307151109   0.019993302398 Bohr
[INPUT] 12 C     -2.457420000000   1.423230000000   0.008320000000 AA   -4.643850773029   2.689514912265   0.015722521356 Bohr
[INPUT] 13 C     -1.235180000000   2.138080000000   0.007710000000 AA   -2.334151914540   4.040385632410   0.014569788420 Bohr
[INPUT] 14 C     -3.697820000000   3.611500000000   0.006010000000 AA   -6.987867057939   6.824745898867   0.011357254009 Bohr
[INPUT] 15 C     -2.355890000000   4.276710000000   0.005460000000 AA   -4.451986879602   8.081810614189   0.010317904640 Bohr
[INPUT] 16 C      2.446210000000  -2.796570000000   0.013020000000 AA    4.622666943172  -5.284751388175   0.024604234142 Bohr
[INPUT] 17 C      3.654900000000  -2.096460000000   0.012400000000 AA    6.906760012673  -3.961735231106   0.023432603945 Bohr
[INPUT] 18 C      1.213100000000  -0.696260000000   0.010780000000 AA    2.292426761710  -1.315740711490   0.020371247623 Bohr
[INPUT] 19 C      2.435460000000   0.009360000000   0.010170000000 AA    4.602352387333   0.017687836526   0.019218514687 Bohr
[INPUT] 20 C     -0.013850000000   1.422030000000   0.008540000000 AA   -0.026172706825   2.687247240915   0.016138261104 Bohr
[INPUT] 21 C      1.213690000000   2.124060000000   0.007930000000 AA    2.293541700123   4.013891672144   0.014985528168 Bohr
[INPUT] 22 C     -1.213700000000   3.560940000000   0.006280000000 AA   -2.293560597385   6.729201346009   0.011867480062 Bohr
[INPUT] 23 C      0.016370000000   4.239370000000   0.005690000000 AA    0.030934816659   8.011248240697   0.010752541649 Bohr
[INPUT] 24 C      3.661140000000  -0.695090000000   0.010980000000 AA    6.918551903690  -1.313529731924   0.020749192848 Bohr
[INPUT] 25 C      4.871090000000   0.014370000000   0.010350000000 AA    9.205026028108   0.027155364410   0.019558665389 Bohr
[INPUT] 26 C      2.435750000000   1.417930000000   0.008740000000 AA    4.602900407909   2.679499363805   0.016516206329 Bohr
[INPUT] 27 C      3.661730000000   2.121860000000   0.008120000000 AA    6.919666842104   4.009734274670   0.015344576131 Bohr
[INPUT] 28 C      1.224630000000   3.535000000000   0.006500000000 AA    2.314215303926   6.680181850337   0.012283219810 Bohr
[INPUT] 29 C      2.447680000000   4.223840000000   0.005900000000 AA    4.625444840575   7.981900793983   0.011149384135 Bohr
[INPUT] 30 C      4.871380000000   1.411900000000   0.008930000000 AA    9.205574048684   2.668104315273   0.016875254292 Bohr
[INPUT] 31 C      3.656080000000   3.523230000000   0.006700000000 AA    6.908989889500   6.657939773851   0.012661165035 Bohr
[INPUT] 32 H     -4.639710000000  -2.771750000000   0.012340000000 AA   -8.767781197406  -5.237848385763   0.023319220377 Bohr
[INPUT] 33 H     -5.839230000000  -0.512350000000   0.009950000000 AA  -11.034545478344  -0.968201179921   0.018802774939 Bohr
[INPUT] 34 H     -2.335290000000  -3.934260000000   0.013740000000 AA   -4.413058521436  -7.434673902831   0.025964836952 Bohr
[INPUT] 35 H     -5.838710000000   1.943100000000   0.007480000000 AA  -11.033562820759   3.671926832642   0.014135151412 Bohr
[INPUT] 36 H      0.034450000000  -3.896600000000   0.013920000000 AA    0.065101064991  -7.363506816980   0.026304987654 Bohr
[INPUT] 37 H     -4.638240000000   4.202010000000   0.005330000000 AA   -8.765003300003   7.940648072684   0.010072240244 Bohr
[INPUT] 38 H     -2.333340000000   5.363550000000   0.004360000000 AA   -4.409373555493  10.135640555411   0.008239205903 Bohr
[INPUT] 39 H      2.468170000000  -3.879980000000   0.014120000000 AA    4.664165328868  -7.332099568790   0.026682932879 Bohr
[INPUT] 40 H      4.585330000000  -2.651820000000   0.013040000000 AA    8.665017890752  -5.011213531644   0.024642028664 Bohr
[INPUT] 41 H      0.036380000000   5.324900000000   0.004600000000 AA    0.068748236412  10.062602640696   0.008692740173 Bohr
[INPUT] 42 H      5.818200000000  -0.512040000000   0.010960000000 AA   10.994804537944  -0.967615364822   0.020711398325 Bohr
[INPUT] 43 H      2.470100000000   5.307250000000   0.004810000000 AA    4.667812500288  10.029248974598   0.009089582659 Bohr
[INPUT] 44 H      5.818720000000   1.937900000000   0.008470000000 AA   10.995787195529   3.662100256795   0.016005980275 Bohr
[INPUT] 45 H      4.586750000000   4.078200000000   0.006210000000 AA    8.667701301849   7.706681081201   0.011735199234 Bohr
[INPUT] 46 C     -0.014150000000   0.006290000000   0.009970000000 AA   -0.026739624663   0.011886377324   0.018840569462 Bohr

nuclear repulsion = 2866.24058346546
number of shells = 220
number of NR pGTOs = 920
number of NR cGTOs = 476
basis = 6-31G*
ecp = {}
CPU time:         0.64
rks_ao.ne_frozen =  0


******** <class 'pydmfet.qcwrap.pyscf_rks_ao.rks_ao'> flags ********
method = rks_ao-RKS-RHF
initial guess = minao
damping factor = 0
level shift factor = 0
DIIS = <class 'pyscf.scf.diis.CDIIS'>
DIIS start cycle = 1
DIIS space = 8
SCF tol = 1e-09
SCF gradient tol = None
max. SCF cycles = 100
direct_scf = False
chkfile to save SCF result = /tigress/xingz/pydmfet/examples/proj/graphene/tmpr8d1ad_r
max_memory 16000 MB (current use 68 MB)
XC functionals = pbe,pbe
small_rho_cutoff = 1e-07
radial grids: 
    Treutler-Ahlrichs (JCP 102, 346 (M4)) radial grids
    
becke partition: Becke, JCP, 88, 2547 (1988)
pruning grids: <function nwchem_prune at 0x2b75443bf9d8>
grids dens level: 3
symmetrized grids: False
atomic radii adjust function: <function treutler_atomic_radii_adjust at 0x2b75443bf950>
Set gradient conv threshold to 3.16228e-05
tot grids = 585200
init E= -1233.64961556331
HOMO:  -0.2964498554613468 LUMO:  -0.23281240682152696
Fermi energy:      -0.2646205376
[2.     2.     2.     2.     2.     2.     2.     2.     2.     2.
 2.     2.     2.     2.     2.     2.     2.     2.     2.     2.
 2.     2.     2.     2.     2.     2.     2.     2.     2.     2.
 2.     2.     2.     2.     2.     2.     2.     2.     2.     2.
 2.     2.     2.     2.     2.     2.     2.     2.     2.     2.
 2.     2.     2.     2.     2.     2.     2.     2.     2.     2.
 2.     2.     2.     2.     2.     2.     2.     2.     2.     2.
 2.     2.     2.     2.     2.     2.     2.     2.     2.     2.
 2.     2.     2.     2.     2.     2.     2.     2.     2.     2.
 2.     2.     2.     2.     2.     2.     2.     2.     2.     2.
 2.     1.9999 1.9966 0.0034]
entropy correction =  -0.0002598474441516122
cycle= 1 E= -1225.8370563948  delta_E= 7.81  |g|= 1.48  |ddm|= 11.9
HOMO:  -0.0408252780672522 LUMO:  0.021978293020263474
Fermi energy:      -0.0096713835
[2.0000e+00 2.0000e+00 2.0000e+00 2.0000e+00 2.0000e+00 2.0000e+00
 2.0000e+00 2.0000e+00 2.0000e+00 2.0000e+00 2.0000e+00 2.0000e+00
 2.0000e+00 2.0000e+00 2.0000e+00 2.0000e+00 2.0000e+00 2.0000e+00
 2.0000e+00 2.0000e+00 2.0000e+00 2.0000e+00 2.0000e+00 2.0000e+00
 2.0000e+00 2.0000e+00 2.0000e+00 2.0000e+00 2.0000e+00 2.0000e+00
 2.0000e+00 2.0000e+00 2.0000e+00 2.0000e+00 2.0000e+00 2.0000e+00
 2.0000e+00 2.0000e+00 2.0000e+00 2.0000e+00 2.0000e+00 2.0000e+00
 2.0000e+00 2.0000e+00 2.0000e+00 2.0000e+00 2.0000e+00 2.0000e+00
 2.0000e+00 2.0000e+00 2.0000e+00 2.0000e+00 2.0000e+00 2.0000e+00
 2.0000e+00 2.0000e+00 2.0000e+00 2.0000e+00 2.0000e+00 2.0000e+00
 2.0000e+00 2.0000e+00 2.0000e+00 2.0000e+00 2.0000e+00 2.0000e+00
 2.0000e+00 2.0000e+00 2.0000e+00 2.0000e+00 2.0000e+00 2.0000e+00
 2.0000e+00 2.0000e+00 2.0000e+00 2.0000e+00 2.0000e+00 2.0000e+00
 2.0000e+00 2.0000e+00 2.0000e+00 2.0000e+00 2.0000e+00 2.0000e+00
 2.0000e+00 2.0000e+00 2.0000e+00 2.0000e+00 2.0000e+00 2.0000e+00
 2.0000e+00 2.0000e+00 2.0000e+00 2.0000e+00 2.0000e+00 2.0000e+00
 2.0000e+00 2.0000e+00 2.0000e+00 2.0000e+00 2.0000e+00 2.0000e+00
 1.9961e+00 3.5580e-03 4.0814e-04]
entropy correction =  -0.0002945362932275546
cycle= 2 E= -1225.56197762398  delta_E= 0.275  |g|= 1.75  |ddm|= 5.62
HOMO:  -0.16229406202213975 LUMO:  -0.09893979727798505
Fermi energy:      -0.1303105888
[2.     2.     2.     2.     2.     2.     2.     2.     2.     2.
 2.     2.     2.     2.     2.     2.     2.     2.     2.     2.
 2.     2.     2.     2.     2.     2.     2.     2.     2.     2.
 2.     2.     2.     2.     2.     2.     2.     2.     2.     2.
 2.     2.     2.     2.     2.     2.     2.     2.     2.     2.
 2.     2.     2.     2.     2.     2.     2.     2.     2.     2.
 2.     2.     2.     2.     2.     2.     2.     2.     2.     2.
 2.     2.     2.     2.     2.     2.     2.     2.     2.     2.
 2.     2.     2.     2.     2.     2.     2.     2.     2.     2.
 2.     2.     2.     2.     2.     2.     2.     2.     2.     2.
 2.     1.9995 1.9967 0.0038]
entropy correction =  -0.00028421833261219005
cycle= 3 E= -1226.26350102838  delta_E= -0.702  |g|= 0.664  |ddm|= 3.42
HOMO:  -0.16300464364169912 LUMO:  -0.09797414187634934
Fermi energy:      -0.1305613433
[2.    2.    2.    2.    2.    2.    2.    2.    2.    2.    2.    2.
 2.    2.    2.    2.    2.    2.    2.    2.    2.    2.    2.    2.
 2.    2.    2.    2.    2.    2.    2.    2.    2.    2.    2.    2.
 2.    2.    2.    2.    2.    2.    2.    2.    2.    2.    2.    2.
 2.    2.    2.    2.    2.    2.    2.    2.    2.    2.    2.    2.
 2.    2.    2.    2.    2.    2.    2.    2.    2.    2.    2.    2.
 2.    2.    2.    2.    2.    2.    2.    2.    2.    2.    2.    2.
 2.    2.    2.    2.    2.    2.    2.    2.    2.    2.    2.    2.
 2.    2.    2.    2.    2.    2.    1.997 0.003]
entropy correction =  -0.00023148393245680813
cycle= 4 E= -1226.39696051588  delta_E= -0.133  |g|= 0.214  |ddm|= 1.07
HOMO:  -0.1631072206045497 LUMO:  -0.09837146158166474
Fermi energy:      -0.1307241619
[2.     2.     2.     2.     2.     2.     2.     2.     2.     2.
 2.     2.     2.     2.     2.     2.     2.     2.     2.     2.
 2.     2.     2.     2.     2.     2.     2.     2.     2.     2.
 2.     2.     2.     2.     2.     2.     2.     2.     2.     2.
 2.     2.     2.     2.     2.     2.     2.     2.     2.     2.
 2.     2.     2.     2.     2.     2.     2.     2.     2.     2.
 2.     2.     2.     2.     2.     2.     2.     2.     2.     2.
 2.     2.     2.     2.     2.     2.     2.     2.     2.     2.
 2.     2.     2.     2.     2.     2.     2.     2.     2.     2.
 2.     2.     2.     2.     2.     2.     2.     2.     2.     2.
 2.     2.     1.9969 0.0031]
entropy correction =  -0.00023544815989665223
cycle= 5 E= -1226.40845998663  delta_E= -0.0115  |g|= 0.0977  |ddm|= 0.412
HOMO:  -0.1603905673273799 LUMO:  -0.09557369289558147
Fermi energy:      -0.1279992846
[2.     2.     2.     2.     2.     2.     2.     2.     2.     2.
 2.     2.     2.     2.     2.     2.     2.     2.     2.     2.
 2.     2.     2.     2.     2.     2.     2.     2.     2.     2.
 2.     2.     2.     2.     2.     2.     2.     2.     2.     2.
 2.     2.     2.     2.     2.     2.     2.     2.     2.     2.
 2.     2.     2.     2.     2.     2.     2.     2.     2.     2.
 2.     2.     2.     2.     2.     2.     2.     2.     2.     2.
 2.     2.     2.     2.     2.     2.     2.     2.     2.     2.
 2.     2.     2.     2.     2.     2.     2.     2.     2.     2.
 2.     2.     2.     2.     2.     2.     2.     2.     2.     2.
 2.     2.     1.9969 0.003 ]
entropy correction =  -0.00023382660287368364
cycle= 6 E= -1226.41109469264  delta_E= -0.00263  |g|= 0.0334  |ddm|= 0.149
HOMO:  -0.1600727862851087 LUMO:  -0.09525330857394945
Fermi energy:      -0.1276714331
[2.     2.     2.     2.     2.     2.     2.     2.     2.     2.
 2.     2.     2.     2.     2.     2.     2.     2.     2.     2.
 2.     2.     2.     2.     2.     2.     2.     2.     2.     2.
 2.     2.     2.     2.     2.     2.     2.     2.     2.     2.
 2.     2.     2.     2.     2.     2.     2.     2.     2.     2.
 2.     2.     2.     2.     2.     2.     2.     2.     2.     2.
 2.     2.     2.     2.     2.     2.     2.     2.     2.     2.
 2.     2.     2.     2.     2.     2.     2.     2.     2.     2.
 2.     2.     2.     2.     2.     2.     2.     2.     2.     2.
 2.     2.     2.     2.     2.     2.     2.     2.     2.     2.
 2.     2.     1.9969 0.0031]
entropy correction =  -0.00023365065843102274
cycle= 7 E= -1226.41130060811  delta_E= -0.000206  |g|= 0.0208  |ddm|= 0.0636
HOMO:  -0.1598572473134942 LUMO:  -0.09504631226918171
Fermi energy:      -0.1274638580
[2.     2.     2.     2.     2.     2.     2.     2.     2.     2.
 2.     2.     2.     2.     2.     2.     2.     2.     2.     2.
 2.     2.     2.     2.     2.     2.     2.     2.     2.     2.
 2.     2.     2.     2.     2.     2.     2.     2.     2.     2.
 2.     2.     2.     2.     2.     2.     2.     2.     2.     2.
 2.     2.     2.     2.     2.     2.     2.     2.     2.     2.
 2.     2.     2.     2.     2.     2.     2.     2.     2.     2.
 2.     2.     2.     2.     2.     2.     2.     2.     2.     2.
 2.     2.     2.     2.     2.     2.     2.     2.     2.     2.
 2.     2.     2.     2.     2.     2.     2.     2.     2.     2.
 2.     2.     1.9969 0.0031]
entropy correction =  -0.00023385637699292126
cycle= 8 E= -1226.41141029951  delta_E= -0.00011  |g|= 0.00546  |ddm|= 0.0296
HOMO:  -0.15992782353471918 LUMO:  -0.09510916478453343
Fermi energy:      -0.1275294785
[2.     2.     2.     2.     2.     2.     2.     2.     2.     2.
 2.     2.     2.     2.     2.     2.     2.     2.     2.     2.
 2.     2.     2.     2.     2.     2.     2.     2.     2.     2.
 2.     2.     2.     2.     2.     2.     2.     2.     2.     2.
 2.     2.     2.     2.     2.     2.     2.     2.     2.     2.
 2.     2.     2.     2.     2.     2.     2.     2.     2.     2.
 2.     2.     2.     2.     2.     2.     2.     2.     2.     2.
 2.     2.     2.     2.     2.     2.     2.     2.     2.     2.
 2.     2.     2.     2.     2.     2.     2.     2.     2.     2.
 2.     2.     2.     2.     2.     2.     2.     2.     2.     2.
 2.     2.     1.9969 0.0031]
entropy correction =  -0.0002336930213807638
cycle= 9 E= -1226.4114182465  delta_E= -7.95e-06  |g|= 0.00119  |ddm|= 0.00753
HOMO:  -0.15993460685213476 LUMO:  -0.09511835706807456
Fermi energy:      -0.1275377539
[2.     2.     2.     2.     2.     2.     2.     2.     2.     2.
 2.     2.     2.     2.     2.     2.     2.     2.     2.     2.
 2.     2.     2.     2.     2.     2.     2.     2.     2.     2.
 2.     2.     2.     2.     2.     2.     2.     2.     2.     2.
 2.     2.     2.     2.     2.     2.     2.     2.     2.     2.
 2.     2.     2.     2.     2.     2.     2.     2.     2.     2.
 2.     2.     2.     2.     2.     2.     2.     2.     2.     2.
 2.     2.     2.     2.     2.     2.     2.     2.     2.     2.
 2.     2.     2.     2.     2.     2.     2.     2.     2.     2.
 2.     2.     2.     2.     2.     2.     2.     2.     2.     2.
 2.     2.     1.9969 0.0031]
entropy correction =  -0.00023374323754541098
cycle= 10 E= -1226.41141846435  delta_E= -2.18e-07  |g|= 0.000834  |ddm|= 0.00248
HOMO:  -0.1599454045578429 LUMO:  -0.09512901547638439
Fermi energy:      -0.1275484796
[2.     2.     2.     2.     2.     2.     2.     2.     2.     2.
 2.     2.     2.     2.     2.     2.     2.     2.     2.     2.
 2.     2.     2.     2.     2.     2.     2.     2.     2.     2.
 2.     2.     2.     2.     2.     2.     2.     2.     2.     2.
 2.     2.     2.     2.     2.     2.     2.     2.     2.     2.
 2.     2.     2.     2.     2.     2.     2.     2.     2.     2.
 2.     2.     2.     2.     2.     2.     2.     2.     2.     2.
 2.     2.     2.     2.     2.     2.     2.     2.     2.     2.
 2.     2.     2.     2.     2.     2.     2.     2.     2.     2.
 2.     2.     2.     2.     2.     2.     2.     2.     2.     2.
 2.     2.     1.9969 0.0031]
entropy correction =  -0.00023374147841441183
cycle= 11 E= -1226.41141865043  delta_E= -1.86e-07  |g|= 0.00029  |ddm|= 0.00138
HOMO:  -0.15994720405217436 LUMO:  -0.09513056816903596
Fermi energy:      -0.1275501178
[2.     2.     2.     2.     2.     2.     2.     2.     2.     2.
 2.     2.     2.     2.     2.     2.     2.     2.     2.     2.
 2.     2.     2.     2.     2.     2.     2.     2.     2.     2.
 2.     2.     2.     2.     2.     2.     2.     2.     2.     2.
 2.     2.     2.     2.     2.     2.     2.     2.     2.     2.
 2.     2.     2.     2.     2.     2.     2.     2.     2.     2.
 2.     2.     2.     2.     2.     2.     2.     2.     2.     2.
 2.     2.     2.     2.     2.     2.     2.     2.     2.     2.
 2.     2.     2.     2.     2.     2.     2.     2.     2.     2.
 2.     2.     2.     2.     2.     2.     2.     2.     2.     2.
 2.     2.     1.9969 0.0031]
entropy correction =  -0.00023373577996725538
cycle= 12 E= -1226.41141867214  delta_E= -2.17e-08  |g|= 0.00012  |ddm|= 0.000533
HOMO:  -0.15994653869816453 LUMO:  -0.09512986514871136
Fermi energy:      -0.1275494437
[2.     2.     2.     2.     2.     2.     2.     2.     2.     2.
 2.     2.     2.     2.     2.     2.     2.     2.     2.     2.
 2.     2.     2.     2.     2.     2.     2.     2.     2.     2.
 2.     2.     2.     2.     2.     2.     2.     2.     2.     2.
 2.     2.     2.     2.     2.     2.     2.     2.     2.     2.
 2.     2.     2.     2.     2.     2.     2.     2.     2.     2.
 2.     2.     2.     2.     2.     2.     2.     2.     2.     2.
 2.     2.     2.     2.     2.     2.     2.     2.     2.     2.
 2.     2.     2.     2.     2.     2.     2.     2.     2.     2.
 2.     2.     2.     2.     2.     2.     2.     2.     2.     2.
 2.     2.     1.9969 0.0031]
entropy correction =  -0.00023373509717303302
cycle= 13 E= -1226.4114186756  delta_E= -3.46e-09  |g|= 3.4e-05  |ddm|= 0.000178
HOMO:  -0.15994635887756936 LUMO:  -0.09512973903612566
Fermi energy:      -0.1275492794
[2.     2.     2.     2.     2.     2.     2.     2.     2.     2.
 2.     2.     2.     2.     2.     2.     2.     2.     2.     2.
 2.     2.     2.     2.     2.     2.     2.     2.     2.     2.
 2.     2.     2.     2.     2.     2.     2.     2.     2.     2.
 2.     2.     2.     2.     2.     2.     2.     2.     2.     2.
 2.     2.     2.     2.     2.     2.     2.     2.     2.     2.
 2.     2.     2.     2.     2.     2.     2.     2.     2.     2.
 2.     2.     2.     2.     2.     2.     2.     2.     2.     2.
 2.     2.     2.     2.     2.     2.     2.     2.     2.     2.
 2.     2.     2.     2.     2.     2.     2.     2.     2.     2.
 2.     2.     1.9969 0.0031]
entropy correction =  -0.00023373607096424255
cycle= 14 E= -1226.41141867551  delta_E= 9.6e-11  |g|= 3.56e-05  |ddm|= 7.82e-05
HOMO:  -0.1599454102711546 LUMO:  -0.09512875750948904
Fermi energy:      -0.1275483258
[2.     2.     2.     2.     2.     2.     2.     2.     2.     2.
 2.     2.     2.     2.     2.     2.     2.     2.     2.     2.
 2.     2.     2.     2.     2.     2.     2.     2.     2.     2.
 2.     2.     2.     2.     2.     2.     2.     2.     2.     2.
 2.     2.     2.     2.     2.     2.     2.     2.     2.     2.
 2.     2.     2.     2.     2.     2.     2.     2.     2.     2.
 2.     2.     2.     2.     2.     2.     2.     2.     2.     2.
 2.     2.     2.     2.     2.     2.     2.     2.     2.     2.
 2.     2.     2.     2.     2.     2.     2.     2.     2.     2.
 2.     2.     2.     2.     2.     2.     2.     2.     2.     2.
 2.     2.     1.9969 0.0031]
entropy correction =  -0.00023373552182775987
cycle= 15 E= -1226.41141867589  delta_E= -3.82e-10  |g|= 1.45e-05  |ddm|= 5.65e-05
HOMO:  -0.15994632681811122 LUMO:  -0.09512970121707702
Fermi energy:      -0.1275492393
[2.     2.     2.     2.     2.     2.     2.     2.     2.     2.
 2.     2.     2.     2.     2.     2.     2.     2.     2.     2.
 2.     2.     2.     2.     2.     2.     2.     2.     2.     2.
 2.     2.     2.     2.     2.     2.     2.     2.     2.     2.
 2.     2.     2.     2.     2.     2.     2.     2.     2.     2.
 2.     2.     2.     2.     2.     2.     2.     2.     2.     2.
 2.     2.     2.     2.     2.     2.     2.     2.     2.     2.
 2.     2.     2.     2.     2.     2.     2.     2.     2.     2.
 2.     2.     2.     2.     2.     2.     2.     2.     2.     2.
 2.     2.     2.     2.     2.     2.     2.     2.     2.     2.
 2.     2.     1.9969 0.0031]
entropy correction =  -0.00023373591787350889
Extra cycle  E= -1226.41141867536  delta_E= 5.35e-10  |g|= 4.4e-05  |ddm|= 7.27e-05
converged SCF energy = -1226.41141867536
<class 'pydmfet.qcwrap.pyscf_rks_ao.rks_ao'> does not have attributes  ne_frozen coredm vext_1e add_coredm_ext_energy
