#INFO: **** input file is /tigress/xingz/pydmfet/examples/research/Al12/dmfet/Al12.py ****
from pydmfet import locints, sdmfet, oep, tools, dfet_ao, proj_ao
from pydmfet.dfet_ao import dfet
from pydmfet.qcwrap.pyscf_rks_ao import rks_ao
from pyscf import gto, scf,dft, ao2mo,cc
import numpy as np
from pyscf.tools import molden, cubegen
import copy,time
from pydmfet.tools.sym import h_lattice_sym_tab

bas = 'stuttgartdz'
ecp = 'stuttgartdz'
temp = 0.005


mol = gto.Mole()
mol.atom = open('Al12.xyz').read()
mol.basis = bas
mol.ecp = ecp
mol.build(max_memory = 4000, verbose=4)

mf = rks_ao(mol,smear_sigma = temp)
mf.xc = 'pbe,pbe'
mf.max_cycle = 50
mf.scf(dm0=None)

natoms = mol.natm
impAtom = np.zeros([natoms], dtype=int)
for i in range(6):
    impAtom[i] = 1

ghost_frag = 1-impAtom
ghost_env = 1-ghost_frag

mol_frag = gto.Mole()
mol_frag.atom = tools.add_ghost(mol.atom, ghost_frag)
mol_frag.basis = bas
mol_frag.ecp = ecp
mol_frag.build(max_memory = 4000,verbose = 4)

mol_env = gto.Mole()
mol_env.atom = tools.add_ghost(mol.atom, ghost_env)
mol_env.basis =  bas
mol_env.ecp = ecp
mol_env.build(max_memory = 4000,verbose = 4)

Ne_frag = 18
Ne_env = 18

boundary_atoms = None
boundary_atoms2 =None

umat = None
umat = np.load("umat.npy")

params = oep.OEPparams(algorithm = 'leastsq', opt_method = 'L-BFGS-B', diffP_tol=1e-3, outer_maxit = 5)
params.options['ftol'] = 1e-9
params.options['gtol'] = 1e-3
params.options['maxiter'] = 50
params.options['svd_thresh'] = 1e-4

theDMFET = dfet.DFET(mf, mol_frag, mol_env,Ne_frag,Ne_env,\
                     boundary_atoms=boundary_atoms, boundary_atoms2=boundary_atoms2,umat = umat,\
                     oep_params=params, smear_sigma=temp, ecw_method = 'hf',mf_method = mf.xc, plot_dens=True)

umat = theDMFET.embedding_potential()
#INFO: ******************** input file end ********************


System: uname_result(system='Linux', node='tiger-h20c1n24', release='3.10.0-957.27.2.el7.x86_64', version='#1 SMP Tue Jul 30 11:12:20 EDT 2019', machine='x86_64', processor='x86_64')  Threads 40
Python 3.7.0 (default, Jun 28 2018, 13:15:42) 
[GCC 7.2.0]
numpy 1.16.4  scipy 1.4.0.dev0+0f78e0f
Date: Fri Aug 16 16:45:34 2019
PySCF version 1.5
PySCF path  /home/xingz/.local/lib/python3.7/site-packages/pyscf

[CONFIG] conf_file None
[INPUT] verbose = 4
[INPUT] num. atoms = 12
[INPUT] num. electrons = 36
[INPUT] charge = 0
[INPUT] spin (= nelec alpha-beta = 2S) = 0
[INPUT] symmetry False subgroup None
[INPUT] Mole.unit = angstrom
[INPUT]  1 Al     8.092960000000   4.046480000000  -0.000000000000 AA   15.293477937060   7.646738968530  -0.000000000000 Bohr
[INPUT]  2 Al     8.092960000000   6.069720000000  -2.023240000000 AA   15.293477937060  11.470108452795  -3.823369484265 Bohr
[INPUT]  3 Al    10.116200000000   4.046480000000  -2.023240000000 AA   19.116847421325   7.646738968530  -3.823369484265 Bohr
[INPUT]  4 Al     6.069720000000   4.046480000000  -2.023240000000 AA   11.470108452795   7.646738968530  -3.823369484265 Bohr
[INPUT]  5 Al     8.092960000000   2.023240000000  -2.023240000000 AA   15.293477937060   3.823369484265  -3.823369484265 Bohr
[INPUT]  6 Al     8.092960000000   4.046480000000  -4.046480000000 AA   15.293477937060   7.646738968530  -7.646738968530 Bohr
[INPUT]  7 Al     6.069720000000   6.069720000000  -0.000000000000 AA   11.470108452795  11.470108452795  -0.000000000000 Bohr
[INPUT]  8 Al    10.116200000000   2.023240000000  -0.000000000000 AA   19.116847421325   3.823369484265  -0.000000000000 Bohr
[INPUT]  9 Al    10.116200000000   6.069720000000  -4.046480000000 AA   19.116847421325  11.470108452795  -7.646738968530 Bohr
[INPUT] 10 Al     6.069720000000   2.023240000000  -0.000000000000 AA   11.470108452795   3.823369484265  -0.000000000000 Bohr
[INPUT] 11 Al     6.069720000000   6.069720000000  -4.046480000000 AA   11.470108452795  11.470108452795  -7.646738968530 Bohr
[INPUT] 12 Al    10.116200000000   2.023240000000  -4.046480000000 AA   19.116847421325   3.823369484265  -7.646738968530 Bohr

nuclear repulsion = 84.8573926838199
number of shells = 48
number of NR pGTOs = 192
number of NR cGTOs = 96
basis = stuttgartdz
ecp = stuttgartdz
CPU time:         2.77
rks_ao.ne_frozen =  0


******** <class 'pydmfet.qcwrap.pyscf_rks_ao.rks_ao'> flags ********
method = rks_ao-RKS-RHF
initial guess = minao
damping factor = 0
level shift factor = 0
DIIS = <class 'pyscf.scf.diis.CDIIS'>
DIIS start cycle = 1
DIIS space = 8
SCF tol = 1e-09
SCF gradient tol = None
max. SCF cycles = 50
direct_scf = False
chkfile to save SCF result = /tmp/tmpz6l9ys46
max_memory 4000 MB (current use 65 MB)
XC functionals = pbe,pbe
small_rho_cutoff = 1e-07
radial grids: 
    Treutler-Ahlrichs (JCP 102, 346 (M4)) radial grids
    
becke partition: Becke, JCP, 88, 2547 (1988)
pruning grids: <function nwchem_prune at 0x2b018b359400>
grids dens level: 3
symmetrized grids: False
atomic radii adjust function: <function treutler_atomic_radii_adjust at 0x2b018b359378>
Set gradient conv threshold to 3.16228e-05
tot grids = 220800
init E= -21.344783658299
HOMO:  -0.0964087524766547 LUMO:  -0.08910626015727952
Fermi energy:      -0.0887572500
[2.     2.     2.     2.     2.     2.     2.     2.     2.     2.
 2.     2.     1.9995 1.9096 1.7557 1.7557 1.6441 1.6441 1.0349 0.2163
 0.02   0.02  ]
entropy correction =  -0.030126402950195114
cycle= 1 E= -24.0317931641728  delta_E= -2.69  |g|= 0.653  |ddm|= 6.67
HOMO:  -0.23116268121406766 LUMO:  -0.23116268121406716
Fermi energy:      -0.2358858179
[2.     2.     2.     2.     2.     2.     2.     2.     2.     2.
 2.     2.     2.     1.9989 1.9981 1.9981 1.9963 0.5599 0.5599 0.4393
 0.4393 0.0101]
entropy correction =  -0.02303933511006129
cycle= 2 E= -22.7589412406568  delta_E= 1.27  |g|= 1.61  |ddm|= 4.31
HOMO:  -0.18647942894363184 LUMO:  -0.17551521715008883
Fermi energy:      -0.1766937420
[2.     2.     2.     2.     2.     2.     2.     2.     2.     2.
 2.     2.     1.9995 1.9702 1.7766 1.7766 1.7524 1.7524 0.8827 0.0807
 0.0044 0.0044]
entropy correction =  -0.02415297942638103
cycle= 3 E= -24.1577819172459  delta_E= -1.4  |g|= 0.177  |ddm|= 3.48
HOMO:  -0.1672330936464324 LUMO:  -0.16668219584287014
Fermi energy:      -0.1626445453
[2.     2.     2.     2.     2.     2.     2.     2.     2.     2.
 2.     2.     1.9999 1.922  1.8341 1.8341 1.4292 1.4292 1.3832 0.1196
 0.0244 0.0244]
entropy correction =  -0.029092393079058
cycle= 4 E= -24.1758252844602  delta_E= -0.018  |g|= 0.0887  |ddm|= 0.83
HOMO:  -0.16913270192186278 LUMO:  -0.1647659994642617
Fermi energy:      -0.1627185946
[2.     2.     2.     2.     2.     2.     2.     2.     2.     2.
 2.     2.     1.9998 1.9364 1.7964 1.7964 1.5659 1.5659 1.2019 0.1144
 0.0115 0.0115]
entropy correction =  -0.02808698145818862
cycle= 5 E= -24.1831548067299  delta_E= -0.00733  |g|= 0.00917  |ddm|= 0.293
HOMO:  -0.17049749264549008 LUMO:  -0.1661181449768937
Fermi energy:      -0.1641279001
[2.     2.     2.     2.     2.     2.     2.     2.     2.     2.
 2.     2.     1.9999 1.9389 1.802  1.802  1.5628 1.5628 1.1964 0.1103
 0.0124 0.0124]
entropy correction =  -0.027959636151647326
cycle= 6 E= -24.1832343125341  delta_E= -7.95e-05  |g|= 0.00113  |ddm|= 0.0422
HOMO:  -0.17058528293726194 LUMO:  -0.1663033188095799
Fermi energy:      -0.1642599608
[2.     2.     2.     2.     2.     2.     2.     2.     2.     2.
 2.     2.     1.9999 1.9387 1.8025 1.8025 1.5598 1.5598 1.2015 0.1105
 0.0124 0.0124]
entropy correction =  -0.027983242952348327
cycle= 7 E= -24.1832355473259  delta_E= -1.23e-06  |g|= 0.000895  |ddm|= 0.00747
HOMO:  -0.1705473183301317 LUMO:  -0.16621690815491394
Fermi energy:      -0.1641961314
[2.     2.     2.     2.     2.     2.     2.     2.     2.     2.
 2.     2.     1.9999 1.9385 1.8018 1.8018 1.5616 1.5616 1.1994 0.1109
 0.0124 0.0124]
entropy correction =  -0.027989021488971685
cycle= 8 E= -24.1832361966832  delta_E= -6.49e-07  |g|= 7.71e-05  |ddm|= 0.00356
HOMO:  -0.17053508515500018 LUMO:  -0.1662114728203194
Fermi energy:      -0.1641878969
[2.     2.     2.     2.     2.     2.     2.     2.     2.     2.
 2.     2.     1.9999 1.9385 1.8019 1.8019 1.5613 1.5613 1.1996 0.1108
 0.0124 0.0124]
entropy correction =  -0.02798838938786199
cycle= 9 E= -24.1832362061526  delta_E= -9.47e-09  |g|= 2.11e-05  |ddm|= 0.000544
HOMO:  -0.1705320370118199 LUMO:  -0.16620777273045143
Fermi energy:      -0.1641845192
[2.     2.     2.     2.     2.     2.     2.     2.     2.     2.
 2.     2.     1.9999 1.9385 1.8019 1.8019 1.5613 1.5613 1.1996 0.1108
 0.0124 0.0124]
entropy correction =  -0.02798811360943703
cycle= 10 E= -24.1832362064489  delta_E= -2.96e-10  |g|= 3.03e-06  |ddm|= 6.6e-05
HOMO:  -0.170533117090512 LUMO:  -0.16620885001250033
Fermi energy:      -0.1641855888
[2.     2.     2.     2.     2.     2.     2.     2.     2.     2.
 2.     2.     1.9999 1.9385 1.8019 1.8019 1.5613 1.5613 1.1996 0.1108
 0.0124 0.0124]
entropy correction =  -0.02798812373700042
Extra cycle  E= -24.1832362064465  delta_E= 2.42e-12  |g|= 3.71e-06  |ddm|= 1.75e-05
converged SCF energy = -24.1832362064465
#INFO: **** input file is /tigress/xingz/pydmfet/examples/research/Al12/dmfet/Al12.py ****
from pydmfet import locints, sdmfet, oep, tools, dfet_ao, proj_ao
from pydmfet.dfet_ao import dfet
from pydmfet.qcwrap.pyscf_rks_ao import rks_ao
from pyscf import gto, scf,dft, ao2mo,cc
import numpy as np
from pyscf.tools import molden, cubegen
import copy,time
from pydmfet.tools.sym import h_lattice_sym_tab

bas = 'stuttgartdz'
ecp = 'stuttgartdz'
temp = 0.005


mol = gto.Mole()
mol.atom = open('Al12.xyz').read()
mol.basis = bas
mol.ecp = ecp
mol.build(max_memory = 4000, verbose=4)

mf = rks_ao(mol,smear_sigma = temp)
mf.xc = 'pbe,pbe'
mf.max_cycle = 50
mf.scf(dm0=None)

natoms = mol.natm
impAtom = np.zeros([natoms], dtype=int)
for i in range(6):
    impAtom[i] = 1

ghost_frag = 1-impAtom
ghost_env = 1-ghost_frag

mol_frag = gto.Mole()
mol_frag.atom = tools.add_ghost(mol.atom, ghost_frag)
mol_frag.basis = bas
mol_frag.ecp = ecp
mol_frag.build(max_memory = 4000,verbose = 4)

mol_env = gto.Mole()
mol_env.atom = tools.add_ghost(mol.atom, ghost_env)
mol_env.basis =  bas
mol_env.ecp = ecp
mol_env.build(max_memory = 4000,verbose = 4)

Ne_frag = 18
Ne_env = 18

boundary_atoms = None
boundary_atoms2 =None

umat = None
umat = np.load("umat.npy")

params = oep.OEPparams(algorithm = 'leastsq', opt_method = 'L-BFGS-B', diffP_tol=1e-3, outer_maxit = 5)
params.options['ftol'] = 1e-9
params.options['gtol'] = 1e-3
params.options['maxiter'] = 50
params.options['svd_thresh'] = 1e-4

theDMFET = dfet.DFET(mf, mol_frag, mol_env,Ne_frag,Ne_env,\
                     boundary_atoms=boundary_atoms, boundary_atoms2=boundary_atoms2,umat = umat,\
                     oep_params=params, smear_sigma=temp, ecw_method = 'hf',mf_method = mf.xc, plot_dens=True)

umat = theDMFET.embedding_potential()
#INFO: ******************** input file end ********************


System: uname_result(system='Linux', node='tiger-h20c1n24', release='3.10.0-957.27.2.el7.x86_64', version='#1 SMP Tue Jul 30 11:12:20 EDT 2019', machine='x86_64', processor='x86_64')  Threads 40
Python 3.7.0 (default, Jun 28 2018, 13:15:42) 
[GCC 7.2.0]
numpy 1.16.4  scipy 1.4.0.dev0+0f78e0f
Date: Fri Aug 16 16:45:47 2019
PySCF version 1.5
PySCF path  /home/xingz/.local/lib/python3.7/site-packages/pyscf

[CONFIG] conf_file None
[INPUT] verbose = 4
[INPUT] num. atoms = 12
[INPUT] num. electrons = 18
[INPUT] charge = 0
[INPUT] spin (= nelec alpha-beta = 2S) = 0
[INPUT] symmetry False subgroup None
[INPUT] Mole.unit = angstrom
[INPUT]  1 Al     8.092960000000   4.046480000000  -0.000000000000 AA   15.293477937060   7.646738968530  -0.000000000000 Bohr
[INPUT]  2 Al     8.092960000000   6.069720000000  -2.023240000000 AA   15.293477937060  11.470108452795  -3.823369484265 Bohr
[INPUT]  3 Al    10.116200000000   4.046480000000  -2.023240000000 AA   19.116847421325   7.646738968530  -3.823369484265 Bohr
[INPUT]  4 Al     6.069720000000   4.046480000000  -2.023240000000 AA   11.470108452795   7.646738968530  -3.823369484265 Bohr
[INPUT]  5 Al     8.092960000000   2.023240000000  -2.023240000000 AA   15.293477937060   3.823369484265  -3.823369484265 Bohr
[INPUT]  6 Al     8.092960000000   4.046480000000  -4.046480000000 AA   15.293477937060   7.646738968530  -7.646738968530 Bohr
[INPUT]  7 GHOST-Al   6.069720000000   6.069720000000  -0.000000000000 AA   11.470108452795  11.470108452795  -0.000000000000 Bohr
[INPUT]  8 GHOST-Al  10.116200000000   2.023240000000  -0.000000000000 AA   19.116847421325   3.823369484265  -0.000000000000 Bohr
[INPUT]  9 GHOST-Al  10.116200000000   6.069720000000  -4.046480000000 AA   19.116847421325  11.470108452795  -7.646738968530 Bohr
[INPUT] 10 GHOST-Al   6.069720000000   2.023240000000  -0.000000000000 AA   11.470108452795   3.823369484265  -0.000000000000 Bohr
[INPUT] 11 GHOST-Al   6.069720000000   6.069720000000  -4.046480000000 AA   11.470108452795  11.470108452795  -7.646738968530 Bohr
[INPUT] 12 GHOST-Al  10.116200000000   2.023240000000  -4.046480000000 AA   19.116847421325   3.823369484265  -7.646738968530 Bohr

nuclear repulsion = 23.5047992975816
number of shells = 48
number of NR pGTOs = 192
number of NR cGTOs = 96
basis = stuttgartdz
ecp = stuttgartdz
CPU time:       341.00
#INFO: **** input file is /tigress/xingz/pydmfet/examples/research/Al12/dmfet/Al12.py ****
from pydmfet import locints, sdmfet, oep, tools, dfet_ao, proj_ao
from pydmfet.dfet_ao import dfet
from pydmfet.qcwrap.pyscf_rks_ao import rks_ao
from pyscf import gto, scf,dft, ao2mo,cc
import numpy as np
from pyscf.tools import molden, cubegen
import copy,time
from pydmfet.tools.sym import h_lattice_sym_tab

bas = 'stuttgartdz'
ecp = 'stuttgartdz'
temp = 0.005


mol = gto.Mole()
mol.atom = open('Al12.xyz').read()
mol.basis = bas
mol.ecp = ecp
mol.build(max_memory = 4000, verbose=4)

mf = rks_ao(mol,smear_sigma = temp)
mf.xc = 'pbe,pbe'
mf.max_cycle = 50
mf.scf(dm0=None)

natoms = mol.natm
impAtom = np.zeros([natoms], dtype=int)
for i in range(6):
    impAtom[i] = 1

ghost_frag = 1-impAtom
ghost_env = 1-ghost_frag

mol_frag = gto.Mole()
mol_frag.atom = tools.add_ghost(mol.atom, ghost_frag)
mol_frag.basis = bas
mol_frag.ecp = ecp
mol_frag.build(max_memory = 4000,verbose = 4)

mol_env = gto.Mole()
mol_env.atom = tools.add_ghost(mol.atom, ghost_env)
mol_env.basis =  bas
mol_env.ecp = ecp
mol_env.build(max_memory = 4000,verbose = 4)

Ne_frag = 18
Ne_env = 18

boundary_atoms = None
boundary_atoms2 =None

umat = None
umat = np.load("umat.npy")

params = oep.OEPparams(algorithm = 'leastsq', opt_method = 'L-BFGS-B', diffP_tol=1e-3, outer_maxit = 5)
params.options['ftol'] = 1e-9
params.options['gtol'] = 1e-3
params.options['maxiter'] = 50
params.options['svd_thresh'] = 1e-4

theDMFET = dfet.DFET(mf, mol_frag, mol_env,Ne_frag,Ne_env,\
                     boundary_atoms=boundary_atoms, boundary_atoms2=boundary_atoms2,umat = umat,\
                     oep_params=params, smear_sigma=temp, ecw_method = 'hf',mf_method = mf.xc, plot_dens=True)

umat = theDMFET.embedding_potential()
#INFO: ******************** input file end ********************


System: uname_result(system='Linux', node='tiger-h20c1n24', release='3.10.0-957.27.2.el7.x86_64', version='#1 SMP Tue Jul 30 11:12:20 EDT 2019', machine='x86_64', processor='x86_64')  Threads 40
Python 3.7.0 (default, Jun 28 2018, 13:15:42) 
[GCC 7.2.0]
numpy 1.16.4  scipy 1.4.0.dev0+0f78e0f
Date: Fri Aug 16 16:45:47 2019
PySCF version 1.5
PySCF path  /home/xingz/.local/lib/python3.7/site-packages/pyscf

[CONFIG] conf_file None
[INPUT] verbose = 4
[INPUT] num. atoms = 12
[INPUT] num. electrons = 18
[INPUT] charge = 0
[INPUT] spin (= nelec alpha-beta = 2S) = 0
[INPUT] symmetry False subgroup None
[INPUT] Mole.unit = angstrom
[INPUT]  1 GHOST-Al   8.092960000000   4.046480000000  -0.000000000000 AA   15.293477937060   7.646738968530  -0.000000000000 Bohr
[INPUT]  2 GHOST-Al   8.092960000000   6.069720000000  -2.023240000000 AA   15.293477937060  11.470108452795  -3.823369484265 Bohr
[INPUT]  3 GHOST-Al  10.116200000000   4.046480000000  -2.023240000000 AA   19.116847421325   7.646738968530  -3.823369484265 Bohr
[INPUT]  4 GHOST-Al   6.069720000000   4.046480000000  -2.023240000000 AA   11.470108452795   7.646738968530  -3.823369484265 Bohr
[INPUT]  5 GHOST-Al   8.092960000000   2.023240000000  -2.023240000000 AA   15.293477937060   3.823369484265  -3.823369484265 Bohr
[INPUT]  6 GHOST-Al   8.092960000000   4.046480000000  -4.046480000000 AA   15.293477937060   7.646738968530  -7.646738968530 Bohr
[INPUT]  7 Al     6.069720000000   6.069720000000  -0.000000000000 AA   11.470108452795  11.470108452795  -0.000000000000 Bohr
[INPUT]  8 Al    10.116200000000   2.023240000000  -0.000000000000 AA   19.116847421325   3.823369484265  -0.000000000000 Bohr
[INPUT]  9 Al    10.116200000000   6.069720000000  -4.046480000000 AA   19.116847421325  11.470108452795  -7.646738968530 Bohr
[INPUT] 10 Al     6.069720000000   2.023240000000  -0.000000000000 AA   11.470108452795   3.823369484265  -0.000000000000 Bohr
[INPUT] 11 Al     6.069720000000   6.069720000000  -4.046480000000 AA   11.470108452795  11.470108452795  -7.646738968530 Bohr
[INPUT] 12 Al    10.116200000000   2.023240000000  -4.046480000000 AA   19.116847421325   3.823369484265  -7.646738968530 Bohr

nuclear repulsion = 14.0938802665721
number of shells = 48
number of NR pGTOs = 192
number of NR cGTOs = 96
basis = stuttgartdz
ecp = stuttgartdz
CPU time:       341.38


******** <class 'pydmfet.dfet_ao.scf.EmbedSCF'> flags ********
method = EmbedSCF-RKS-RHF
initial guess = minao
damping factor = 0
level shift factor = 0
DIIS = <class 'pyscf.scf.diis.CDIIS'>
DIIS start cycle = 1
DIIS space = 8
SCF tol = 1e-09
SCF gradient tol = None
max. SCF cycles = 50
direct_scf = False
chkfile to save SCF result = /tmp/tmp8yp_2j6o
max_memory 4000 MB (current use 560 MB)
XC functionals = pbe,pbe
small_rho_cutoff = 1e-07
radial grids: 
    Treutler-Ahlrichs (JCP 102, 346 (M4)) radial grids
    
becke partition: Becke, JCP, 88, 2547 (1988)
pruning grids: <function nwchem_prune at 0x2b018b359400>
grids dens level: 3
symmetrized grids: False
atomic radii adjust function: <function treutler_atomic_radii_adjust at 0x2b018b359378>
Set gradient conv threshold to 3.16228e-05
tot grids = 190200
init E= -9.38490194919951
HOMO: -0.1985522209745574 LUMO: -0.19551592720414487
mo_energy:
[-0.365  -0.2605 -0.2334 -0.2313 -0.2042 -0.2038 -0.2001 -0.1986 -0.1986
 -0.1955 -0.1893 -0.189  -0.1809 -0.1737]
e_fermi =  -0.19454635946921767
[2.    2.    1.999 1.999 1.749 1.726 1.501 1.383 1.38  1.097 0.519 0.495
 0.122 0.03 ]
entropy correction =  -0.047128594464881095
cycle= 1 E= -12.6872756737955  delta_E= -3.3  |g|= 0.524  |ddm|= 4.83
HOMO: -0.36752630006302794 LUMO: -0.34473830517531023
mo_energy:
[-0.673 -0.524 -0.466 -0.464 -0.392 -0.384 -0.384 -0.368 -0.368 -0.345
 -0.344 -0.341 -0.332 -0.321]
e_fermi =  -0.3566542662230661
[2.000e+00 2.000e+00 2.000e+00 2.000e+00 1.998e+00 1.992e+00 1.992e+00
 1.798e+00 1.796e+00 1.689e-01 1.589e-01 8.002e-02 1.417e-02 1.593e-03]
entropy correction =  -0.01498883126919827
cycle= 2 E= -12.6077752949763  delta_E= 0.0795  |g|= 0.605  |ddm|= 2.31
HOMO: -0.30359310989468435 LUMO: -0.30197181277020946
mo_energy:
[-0.527 -0.408 -0.364 -0.362 -0.319 -0.318 -0.318 -0.304 -0.304 -0.302
 -0.302 -0.301 -0.284 -0.27 ]
e_fermi =  -0.30397390187615597
[2.    2.    2.    2.    1.907 1.894 1.876 0.976 0.962 0.802 0.787 0.754
 0.038 0.002]
entropy correction =  -0.04120986270056793
cycle= 3 E= -12.8036021855282  delta_E= -0.196  |g|= 0.0647  |ddm|= 1.47
HOMO: -0.3072015165294707 LUMO: -0.30431001382663964
mo_energy:
[-0.531 -0.404 -0.371 -0.367 -0.319 -0.318 -0.317 -0.308 -0.307 -0.304
 -0.302 -0.302 -0.287 -0.272]
e_fermi =  -0.30582729235978107
[2.    2.    2.    2.    1.87  1.848 1.804 1.203 1.137 0.849 0.644 0.599
 0.043 0.002]
entropy correction =  -0.04217506736479045
cycle= 4 E= -12.7495151061894  delta_E= 0.0541  |g|= 0.29  |ddm|= 0.635
HOMO: -0.3066082644546468 LUMO: -0.3042414728120659
mo_energy:
[-0.532 -0.404 -0.37  -0.368 -0.318 -0.317 -0.316 -0.307 -0.307 -0.304
 -0.302 -0.302 -0.287 -0.272]
e_fermi =  -0.3056019025221186
[2.    2.    2.    2.    1.838 1.829 1.794 1.146 1.1   0.865 0.695 0.684
 0.045 0.002]
entropy correction =  -0.043652823365780816
cycle= 5 E= -12.7986054981367  delta_E= -0.0491  |g|= 0.109  |ddm|= 0.629
HOMO: -0.30387767012344336 LUMO: -0.3024735041546732
mo_energy:
[-0.529 -0.404 -0.366 -0.365 -0.317 -0.316 -0.315 -0.304 -0.304 -0.302
 -0.301 -0.3   -0.284 -0.269]
e_fermi =  -0.30346740953492013
[2.    2.    2.    2.    1.869 1.84  1.806 1.103 1.041 0.901 0.737 0.659
 0.043 0.002]
entropy correction =  -0.04310892819412129
cycle= 6 E= -12.80344407971  delta_E= -0.00484  |g|= 0.0707  |ddm|= 0.315
HOMO: -0.3036216923476443 LUMO: -0.301671614201963
mo_energy:
[-0.529 -0.404 -0.366 -0.364 -0.316 -0.316 -0.315 -0.304 -0.304 -0.302
 -0.301 -0.3   -0.284 -0.269]
e_fermi =  -0.3031927239696213
[2.    2.    2.    2.    1.849 1.845 1.836 1.06  1.043 0.849 0.737 0.734
 0.043 0.002]
entropy correction =  -0.04315194257713976
cycle= 7 E= -12.8072394806883  delta_E= -0.0038  |g|= 0.0269  |ddm|= 0.192
HOMO: -0.3036179429696828 LUMO: -0.3020332133919527
mo_energy:
[-0.529 -0.404 -0.366 -0.364 -0.316 -0.316 -0.315 -0.304 -0.304 -0.302
 -0.301 -0.3   -0.284 -0.269]
e_fermi =  -0.3033655260167169
[2.    2.    2.    2.    1.851 1.844 1.836 1.076 1.025 0.868 0.736 0.72
 0.043 0.002]
entropy correction =  -0.04313048756475304
cycle= 8 E= -12.8067085407592  delta_E= 0.000531  |g|= 0.0345  |ddm|= 0.116
HOMO: -0.3041437130489297 LUMO: -0.30221705791078235
mo_energy:
[-0.529 -0.404 -0.367 -0.364 -0.316 -0.316 -0.316 -0.304 -0.304 -0.302
 -0.301 -0.301 -0.285 -0.269]
e_fermi =  -0.30370965061390814
[2.    2.    2.    2.    1.846 1.841 1.838 1.061 1.043 0.852 0.738 0.735
 0.043 0.002]
entropy correction =  -0.04323107140244506
cycle= 9 E= -12.8074122312469  delta_E= -0.000704  |g|= 0.0211  |ddm|= 0.0832
HOMO: -0.3041546001179037 LUMO: -0.30223238321530943
mo_energy:
[-0.529 -0.404 -0.367 -0.364 -0.316 -0.316 -0.316 -0.304 -0.304 -0.302
 -0.301 -0.301 -0.285 -0.269]
e_fermi =  -0.3037105322074069
[2.    2.    2.    2.    1.848 1.841 1.836 1.058 1.044 0.853 0.739 0.736
 0.043 0.002]
entropy correction =  -0.043257911457817516
cycle= 10 E= -12.8077119375132  delta_E= -0.0003  |g|= 0.00118  |ddm|= 0.0361
HOMO: -0.30397920754655117 LUMO: -0.3021513244142272
mo_energy:
[-0.529 -0.404 -0.366 -0.364 -0.316 -0.316 -0.316 -0.304 -0.304 -0.302
 -0.301 -0.301 -0.285 -0.269]
e_fermi =  -0.30360986129229145
[2.    2.    2.    2.    1.847 1.84  1.836 1.061 1.037 0.855 0.74  0.738
 0.043 0.002]
entropy correction =  -0.04327756105792022
cycle= 11 E= -12.8077060384398  delta_E= 5.9e-06  |g|= 0.0025  |ddm|= 0.011
HOMO: -0.30407354484026744 LUMO: -0.3021811462488683
mo_energy:
[-0.529 -0.404 -0.366 -0.364 -0.316 -0.316 -0.316 -0.304 -0.304 -0.302
 -0.301 -0.301 -0.285 -0.269]
e_fermi =  -0.30365260081623197
[2.    2.    2.    2.    1.847 1.84  1.836 1.059 1.042 0.854 0.739 0.737
 0.043 0.002]
entropy correction =  -0.04326334432172513
cycle= 12 E= -12.8077132986471  delta_E= -7.26e-06  |g|= 0.00037  |ddm|= 0.00797
HOMO: -0.3040635047832066 LUMO: -0.30217496194078497
mo_energy:
[-0.529 -0.404 -0.366 -0.364 -0.316 -0.316 -0.316 -0.304 -0.304 -0.302
 -0.301 -0.301 -0.285 -0.269]
e_fermi =  -0.30364869376957687
[2.    2.    2.    2.    1.847 1.841 1.836 1.059 1.041 0.854 0.739 0.737
 0.043 0.002]
entropy correction =  -0.043258078630774195
cycle= 13 E= -12.8077130527281  delta_E= 2.46e-07  |g|= 0.000686  |ddm|= 0.00229
HOMO: -0.30408347566334276 LUMO: -0.30218929160314123
mo_energy:
[-0.529 -0.404 -0.366 -0.364 -0.316 -0.316 -0.316 -0.304 -0.304 -0.302
 -0.301 -0.301 -0.285 -0.269]
e_fermi =  -0.3036621896641379
[2.    2.    2.    2.    1.847 1.84  1.836 1.059 1.042 0.854 0.739 0.737
 0.043 0.002]
entropy correction =  -0.043262512245554045
cycle= 14 E= -12.8077133913225  delta_E= -3.39e-07  |g|= 0.000234  |ddm|= 0.00175
HOMO: -0.30407943243547025 LUMO: -0.3021880546044007
mo_energy:
[-0.529 -0.404 -0.366 -0.364 -0.316 -0.316 -0.316 -0.304 -0.304 -0.302
 -0.301 -0.301 -0.285 -0.269]
e_fermi =  -0.3036598113114953
[2.    2.    2.    2.    1.847 1.84  1.836 1.059 1.042 0.854 0.739 0.737
 0.043 0.002]
entropy correction =  -0.043264027169468665
cycle= 15 E= -12.8077134278961  delta_E= -3.66e-08  |g|= 0.000124  |ddm|= 0.000754
HOMO: -0.30407871641563483 LUMO: -0.3021867102492598
mo_energy:
[-0.529 -0.404 -0.366 -0.364 -0.316 -0.316 -0.316 -0.304 -0.304 -0.302
 -0.301 -0.301 -0.285 -0.269]
e_fermi =  -0.30365889412537156
[2.    2.    2.    2.    1.847 1.84  1.836 1.059 1.042 0.854 0.739 0.737
 0.043 0.002]
entropy correction =  -0.0432629767631699
cycle= 16 E= -12.8077134426989  delta_E= -1.48e-08  |g|= 2.29e-05  |ddm|= 0.000354
HOMO: -0.3040793476061722 LUMO: -0.3021874098931232
mo_energy:
[-0.529 -0.404 -0.366 -0.364 -0.316 -0.316 -0.316 -0.304 -0.304 -0.302
 -0.301 -0.301 -0.285 -0.269]
e_fermi =  -0.30365979876923155
[2.    2.    2.    2.    1.847 1.84  1.836 1.059 1.042 0.854 0.739 0.737
 0.043 0.002]
entropy correction =  -0.0432625578092623
cycle= 17 E= -12.8077134426681  delta_E= 3.08e-11  |g|= 2.2e-05  |ddm|= 9.93e-05
HOMO: -0.3040799907842026 LUMO: -0.3021876952235933
mo_energy:
[-0.529 -0.404 -0.366 -0.364 -0.316 -0.316 -0.316 -0.304 -0.304 -0.302
 -0.301 -0.301 -0.285 -0.269]
e_fermi =  -0.30365958442811986
[2.    2.    2.    2.    1.847 1.84  1.836 1.059 1.042 0.854 0.739 0.737
 0.043 0.002]
entropy correction =  -0.043263459180177176
Extra cycle  E= -12.8077134229505  delta_E= 1.97e-08  |g|= 0.000164  |ddm|= 0.000386
converged SCF energy = -12.8077134229505


******** <class 'pydmfet.dfet_ao.scf.EmbedSCF'> flags ********
method = EmbedSCF-RKS-RHF
initial guess = minao
damping factor = 0
level shift factor = 0
DIIS = <class 'pyscf.scf.diis.CDIIS'>
DIIS start cycle = 1
DIIS space = 8
SCF tol = 1e-09
SCF gradient tol = None
max. SCF cycles = 50
direct_scf = False
chkfile to save SCF result = /tmp/tmp4_27p4av
max_memory 4000 MB (current use 3121 MB)
XC functionals = pbe,pbe
small_rho_cutoff = 1e-07
radial grids: 
    Treutler-Ahlrichs (JCP 102, 346 (M4)) radial grids
    
becke partition: Becke, JCP, 88, 2547 (1988)
pruning grids: <function nwchem_prune at 0x2b018b359400>
grids dens level: 3
symmetrized grids: False
atomic radii adjust function: <function treutler_atomic_radii_adjust at 0x2b018b359378>
Set gradient conv threshold to 3.16228e-05
tot grids = 190200
init E= -9.63576034146731
HOMO: -0.14019462130995833 LUMO: -0.13690074069194993
mo_energy:
[-0.293 -0.293 -0.254 -0.233 -0.217 -0.217 -0.149 -0.14  -0.14  -0.137
 -0.137 -0.132 -0.13  -0.122]
e_fermi =  -0.13981143875334848
[2.    2.    2.    2.    2.    2.    1.746 1.066 1.038 0.717 0.713 0.355
 0.259 0.052 0.049 0.006]
entropy correction =  -0.041753862665491484
cycle= 1 E= -12.7270369805465  delta_E= -3.09  |g|= 0.262  |ddm|= 4.89
HOMO: -0.18403538999027716 LUMO: -0.17774376473927989
mo_energy:
[-0.369 -0.369 -0.33  -0.297 -0.297 -0.295 -0.199 -0.184 -0.184 -0.178
 -0.177 -0.177 -0.169 -0.167]
e_fermi =  -0.1829074856138693
[2.    2.    2.    2.    2.    2.    1.916 1.136 1.112 0.525 0.501 0.499
 0.125 0.087 0.082 0.017]
entropy correction =  -0.03878207143926653
cycle= 2 E= -12.7357813371971  delta_E= -0.00874  |g|= 0.151  |ddm|= 0.67
HOMO: -0.19448119239500894 LUMO: -0.1914518813387059
mo_energy:
[-0.37  -0.37  -0.333 -0.302 -0.296 -0.296 -0.209 -0.195 -0.194 -0.191
 -0.191 -0.186 -0.18  -0.178]
e_fermi =  -0.1943021760382521
[2.    2.    2.    2.    2.    2.    1.902 1.047 1.018 0.722 0.715 0.336
 0.118 0.069 0.065 0.008]
entropy correction =  -0.03883415549532406
cycle= 3 E= -12.7459968871102  delta_E= -0.0102  |g|= 0.0344  |ddm|= 0.318
HOMO: -0.19025200145382612 LUMO: -0.18641721175975756
mo_energy:
[-0.366 -0.366 -0.328 -0.297 -0.292 -0.291 -0.204 -0.191 -0.19  -0.186
 -0.186 -0.182 -0.176 -0.173]
e_fermi =  -0.18968087095743333
[2.    2.    2.    2.    2.    2.    1.902 1.089 1.057 0.685 0.645 0.376
 0.112 0.067 0.059 0.009]
entropy correction =  -0.03854123957525821
cycle= 4 E= -12.7311240285891  delta_E= 0.0149  |g|= 0.137  |ddm|= 0.265
HOMO: -0.18839526392167022 LUMO: -0.18447702530755328
mo_energy:
[-0.364 -0.364 -0.327 -0.295 -0.29  -0.29  -0.202 -0.189 -0.188 -0.184
 -0.184 -0.18  -0.174 -0.172]
e_fermi =  -0.18783902260241656
[2.    2.    2.    2.    2.    2.    1.899 1.082 1.056 0.676 0.654 0.37
 0.112 0.074 0.069 0.009]
entropy correction =  -0.03885542763427407
cycle= 5 E= -12.7467321325482  delta_E= -0.0156  |g|= 0.0126  |ddm|= 0.224
HOMO: -0.18843617785822267 LUMO: -0.184512487351508
mo_energy:
[-0.364 -0.364 -0.327 -0.295 -0.29  -0.29  -0.203 -0.189 -0.188 -0.185
 -0.184 -0.18  -0.174 -0.172]
e_fermi =  -0.18789586699375768
[2.    2.    2.    2.    2.    2.    1.899 1.081 1.054 0.674 0.659 0.37
 0.112 0.073 0.069 0.009]
entropy correction =  -0.03884968751845627
cycle= 6 E= -12.74678730925  delta_E= -5.52e-05  |g|= 0.00966  |ddm|= 0.0463
HOMO: -0.18854145885145152 LUMO: -0.18467077797785025
mo_energy:
[-0.364 -0.364 -0.327 -0.295 -0.291 -0.29  -0.203 -0.189 -0.189 -0.185
 -0.185 -0.181 -0.174 -0.172]
e_fermi =  -0.18803064741292724
[2.    2.    2.    2.    2.    2.    1.899 1.079 1.051 0.676 0.664 0.369
 0.111 0.072 0.069 0.009]
entropy correction =  -0.03884293715546937
cycle= 7 E= -12.7468204115343  delta_E= -3.31e-05  |g|= 0.0069  |ddm|= 0.0237
HOMO: -0.1885585720114907 LUMO: -0.18470319112434327
mo_energy:
[-0.364 -0.364 -0.327 -0.295 -0.291 -0.29  -0.203 -0.189 -0.189 -0.185
 -0.185 -0.181 -0.174 -0.172]
e_fermi =  -0.18805076166233045
[2.    2.    2.    2.    2.    2.    1.899 1.079 1.051 0.677 0.664 0.369
 0.111 0.072 0.069 0.009]
entropy correction =  -0.03884180777875733
cycle= 8 E= -12.746856661599  delta_E= -3.63e-05  |g|= 0.00208  |ddm|= 0.0141
HOMO: -0.18857332074994573 LUMO: -0.18474741266202374
mo_energy:
[-0.364 -0.364 -0.327 -0.295 -0.29  -0.29  -0.203 -0.189 -0.189 -0.185
 -0.185 -0.181 -0.174 -0.172]
e_fermi =  -0.18806298858183734
[2.    2.    2.    2.    2.    2.    1.899 1.078 1.051 0.68  0.663 0.368
 0.111 0.073 0.069 0.009]
entropy correction =  -0.03883974571952842
cycle= 9 E= -12.746857537635  delta_E= -8.76e-07  |g|= 0.00182  |ddm|= 0.00722
HOMO: -0.18857030287113513 LUMO: -0.1847315945060681
mo_energy:
[-0.364 -0.364 -0.327 -0.295 -0.291 -0.29  -0.203 -0.189 -0.189 -0.185
 -0.185 -0.181 -0.174 -0.172]
e_fermi =  -0.18805834988726333
[2.    2.    2.    2.    2.    2.    1.899 1.078 1.051 0.679 0.664 0.368
 0.111 0.072 0.069 0.009]
entropy correction =  -0.03883905073372928
cycle= 10 E= -12.7468602512639  delta_E= -2.71e-06  |g|= 0.000422  |ddm|= 0.00513
HOMO: -0.18856112192840283 LUMO: -0.18471987888216262
mo_energy:
[-0.364 -0.364 -0.327 -0.295 -0.29  -0.29  -0.203 -0.189 -0.189 -0.185
 -0.185 -0.181 -0.174 -0.172]
e_fermi =  -0.18805021128951172
[2.    2.    2.    2.    2.    2.    1.899 1.078 1.051 0.679 0.664 0.368
 0.111 0.072 0.069 0.009]
entropy correction =  -0.038838501077222067
cycle= 11 E= -12.7468604242626  delta_E= -1.73e-07  |g|= 6.38e-05  |ddm|= 0.00119
HOMO: -0.18856134864965607 LUMO: -0.18471867078299528
mo_energy:
[-0.364 -0.364 -0.327 -0.295 -0.29  -0.29  -0.203 -0.189 -0.189 -0.185
 -0.185 -0.181 -0.174 -0.172]
e_fermi =  -0.1880495636956267
[2.    2.    2.    2.    2.    2.    1.899 1.078 1.051 0.679 0.664 0.368
 0.111 0.072 0.069 0.009]
entropy correction =  -0.038837288518943754
cycle= 12 E= -12.74686042576  delta_E= -1.5e-09  |g|= 3.96e-05  |ddm|= 0.000183
HOMO: -0.18856166911872208 LUMO: -0.18471955402329365
mo_energy:
[-0.364 -0.364 -0.327 -0.295 -0.29  -0.29  -0.203 -0.189 -0.189 -0.185
 -0.185 -0.181 -0.174 -0.172]
e_fermi =  -0.18804999295593347
[2.    2.    2.    2.    2.    2.    1.899 1.078 1.051 0.679 0.664 0.368
 0.111 0.072 0.069 0.009]
entropy correction =  -0.03883720215217092
cycle= 13 E= -12.7468604252532  delta_E= 5.07e-10  |g|= 4.67e-05  |ddm|= 0.000178
HOMO: -0.18856049516187112 LUMO: -0.18471801615426972
mo_energy:
[-0.364 -0.364 -0.327 -0.295 -0.29  -0.29  -0.203 -0.189 -0.189 -0.185
 -0.185 -0.181 -0.174 -0.172]
e_fermi =  -0.18804865588718614
[2.    2.    2.    2.    2.    2.    1.899 1.078 1.051 0.679 0.664 0.368
 0.111 0.072 0.069 0.009]
entropy correction =  -0.03883710561946135
cycle= 14 E= -12.7468604257604  delta_E= -5.07e-10  |g|= 3.99e-05  |ddm|= 0.000111
HOMO: -0.18856148443350584 LUMO: -0.1847190488810194
mo_energy:
[-0.364 -0.364 -0.327 -0.295 -0.29  -0.29  -0.203 -0.189 -0.189 -0.185
 -0.185 -0.181 -0.174 -0.172]
e_fermi =  -0.18804969235991778
[2.    2.    2.    2.    2.    2.    1.899 1.078 1.051 0.679 0.664 0.368
 0.111 0.072 0.069 0.009]
entropy correction =  -0.038837035261369945
cycle= 15 E= -12.7468604270569  delta_E= -1.3e-09  |g|= 6.81e-06  |ddm|= 8.04e-05
HOMO: -0.18856157466516144 LUMO: -0.1847191792259496
mo_energy:
[-0.364 -0.364 -0.327 -0.295 -0.29  -0.29  -0.203 -0.189 -0.189 -0.185
 -0.185 -0.181 -0.174 -0.172]
e_fermi =  -0.1880497867213664
[2.    2.    2.    2.    2.    2.    1.899 1.078 1.051 0.679 0.664 0.368
 0.111 0.072 0.069 0.009]
entropy correction =  -0.038837014862528906
cycle= 16 E= -12.7468604270069  delta_E= 5e-11  |g|= 1.05e-05  |ddm|= 3.43e-05
HOMO: -0.1885611075142039 LUMO: -0.18471853833444496
mo_energy:
[-0.364 -0.364 -0.327 -0.295 -0.29  -0.29  -0.203 -0.189 -0.189 -0.185
 -0.185 -0.181 -0.174 -0.172]
e_fermi =  -0.1880492497646907
[2.    2.    2.    2.    2.    2.    1.899 1.078 1.051 0.679 0.664 0.368
 0.111 0.072 0.069 0.009]
entropy correction =  -0.03883701477450779
Extra cycle  E= -12.7468604225172  delta_E= 4.49e-09  |g|= 7.54e-05  |ddm|= 0.000164
converged SCF energy = -12.7468604225172
|umat| =  2.04765613011812
rks_ao.ne_frozen =  0
Set gradient conv threshold to 3.16228e-05
Initial guess from hcore.
HOMO:  -3.4854222309675533 LUMO:  -3.273152458152003
Fermi energy:      -3.3775659803
[2. 2. 2. 2. 2. 2. 2. 2. 2.]
tot grids = 190200
init E= -9.53461562965223
HOMO:  -0.04807930163727165 LUMO:  -0.031076202727410823
Fermi energy:      -0.0388156875
[2.0000e+00 2.0000e+00 2.0000e+00 2.0000e+00 2.0000e+00 2.0000e+00
 1.9612e+00 1.9585e+00 1.7289e+00 3.5078e-01 3.0417e-04 2.9334e-04]
entropy correction =  -0.010608984973867084
cycle= 1 E= -8.06934013305663  delta_E= 1.47  |g|= 3.14  |ddm|= 8.63
HOMO:  -0.8748451904092592 LUMO:  -0.7280147724509443
Fermi energy:      -0.7998899847
[2. 2. 2. 2. 2. 2. 2. 2. 2.]
entropy correction =  -1.944062180272843e-07
cycle= 2 E= -10.3916850360397  delta_E= -2.32  |g|= 2.24  |ddm|= 7.83
HOMO:  -0.3991251003736435 LUMO:  -0.37423426945382376
Fermi energy:      -0.3868032257
[2.     2.     2.     2.     1.9953 1.9818 1.9808 1.8492 1.8432 0.1498
 0.1486 0.0407 0.0053 0.0053]
entropy correction =  -0.013320408728380266
cycle= 3 E= -12.7050745098898  delta_E= -2.31  |g|= 0.453  |ddm|= 5.29
HOMO:  -0.2977194197926236 LUMO:  -0.29702845361141533
Fermi energy:      -0.2989986493
[2.0000e+00 2.0000e+00 2.0000e+00 2.0000e+00 1.8982e+00 1.8941e+00
 1.7679e+00 1.2629e+00 8.7277e-01 8.0549e-01 7.4350e-01 6.7190e-01
 8.1825e-02 1.4373e-03]
entropy correction =  -0.04259624713887772
cycle= 4 E= -12.7864681905083  delta_E= -0.0814  |g|= 0.159  |ddm|= 1.53
HOMO:  -0.30736725564169054 LUMO:  -0.3008801695827989
Fermi energy:      -0.3050689236
[2.0000e+00 2.0000e+00 2.0000e+00 2.0000e+00 1.9528e+00 1.9307e+00
 1.8784e+00 1.3882e+00 1.2259e+00 6.0402e-01 5.2554e-01 4.5464e-01
 3.8643e-02 1.2060e-03]
entropy correction =  -0.035996864025049896
cycle= 5 E= -12.5461566622626  delta_E= 0.24  |g|= 0.629  |ddm|= 1.29
HOMO:  -0.3134360595427837 LUMO:  -0.30825869571326453
Fermi energy:      -0.3112376846
[2.0000e+00 2.0000e+00 2.0000e+00 2.0000e+00 1.9036e+00 1.8735e+00
 1.8414e+00 1.2395e+00 1.2164e+00 7.1061e-01 5.9962e-01 5.7844e-01
 3.5336e-02 1.6438e-03]
entropy correction =  -0.03998114153228213
cycle= 6 E= -12.7972807917163  delta_E= -0.251  |g|= 0.128  |ddm|= 0.966
HOMO:  -0.3132577307664442 LUMO:  -0.3095974142261381
Fermi energy:      -0.3110901649
[2.0000e+00 2.0000e+00 2.0000e+00 2.0000e+00 1.8692e+00 1.8575e+00
 1.8124e+00 1.2722e+00 1.2134e+00 8.5182e-01 5.8657e-01 4.9974e-01
 3.5359e-02 1.7944e-03]
entropy correction =  -0.040810195265185416
cycle= 7 E= -12.7815228325051  delta_E= 0.0158  |g|= 0.198  |ddm|= 0.488
HOMO:  -0.3109563015500149 LUMO:  -0.3083346705652602
Fermi energy:      -0.3097114542
[2.0000e+00 2.0000e+00 2.0000e+00 2.0000e+00 1.8514e+00 1.8342e+00
 1.8239e+00 1.1549e+00 1.1238e+00 8.6318e-01 6.7246e-01 6.3206e-01
 4.2058e-02 1.8952e-03]
entropy correction =  -0.04270611759006685
cycle= 8 E= -12.8033713288221  delta_E= -0.0218  |g|= 0.0807  |ddm|= 0.442
HOMO:  -0.3066479171925968 LUMO:  -0.30614690052945104
Fermi energy:      -0.3065495027
[2.0000e+00 2.0000e+00 2.0000e+00 2.0000e+00 1.8857e+00 1.8373e+00
 1.8034e+00 1.1204e+00 1.0098e+00 9.5976e-01 6.9702e-01 6.4178e-01
 4.2989e-02 1.8275e-03]
entropy correction =  -0.04279019833273037
cycle= 9 E= -12.7993759936272  delta_E= 0.004  |g|= 0.0975  |ddm|= 0.35
HOMO:  -0.3026441512230549 LUMO:  -0.30168833184415283
Fermi energy:      -0.3027618140
[2.0000e+00 2.0000e+00 2.0000e+00 2.0000e+00 1.8721e+00 1.8455e+00
 1.8407e+00 1.0176e+00 9.8823e-01 8.9306e-01 7.6190e-01 7.3525e-01
 4.3972e-02 1.7952e-03]
entropy correction =  -0.04296381817896511
cycle= 10 E= -12.8003977756851  delta_E= -0.00102  |g|= 0.102  |ddm|= 0.303
HOMO:  -0.30270346761161293 LUMO:  -0.3016802823216667
Fermi energy:      -0.3028974553
[2.0000e+00 2.0000e+00 2.0000e+00 2.0000e+00 1.8652e+00 1.8640e+00
 1.8338e+00 1.0471e+00 9.8060e-01 8.7888e-01 7.7979e-01 7.0737e-01
 4.1422e-02 1.8597e-03]
entropy correction =  -0.04279131255089654
cycle= 11 E= -12.8045768463563  delta_E= -0.00418  |g|= 0.0612  |ddm|= 0.283
HOMO:  -0.30411544879113306 LUMO:  -0.30208352846955927
Fermi energy:      -0.3036935903
[2.0000e+00 2.0000e+00 2.0000e+00 2.0000e+00 1.8513e+00 1.8408e+00
 1.8339e+00 1.0846e+00 1.0422e+00 8.4037e-01 7.3443e-01 7.2820e-01
 4.2268e-02 1.9917e-03]
entropy correction =  -0.043145347082818274
cycle= 12 E= -12.8076738980966  delta_E= -0.0031  |g|= 0.0104  |ddm|= 0.152
HOMO:  -0.3046954954618523 LUMO:  -0.30246678931874355
Fermi energy:      -0.3040732017
[2.     2.     2.     2.     1.8475 1.8378 1.8334 1.0792 1.0621 0.8407
 0.7312 0.7235 0.0424 0.002 ]
entropy correction =  -0.043209926833138255
cycle= 13 E= -12.8077041309216  delta_E= -3.02e-05  |g|= 0.0108  |ddm|= 0.0509
HOMO:  -0.30414596088843715 LUMO:  -0.30223730451527225
Fermi energy:      -0.3037109854
[2.     2.     2.     2.     1.847  1.8403 1.8363 1.0608 1.0435 0.8537
 0.7381 0.7355 0.043  0.002 ]
entropy correction =  -0.04325850974534731
cycle= 14 E= -12.8078014662111  delta_E= -9.73e-05  |g|= 0.00251  |ddm|= 0.0308
HOMO:  -0.3040404148177155 LUMO:  -0.30220422515826806
Fermi energy:      -0.3036305748
[2.     2.     2.     2.     1.8482 1.839  1.8353 1.0549 1.041  0.8583
 0.741  0.7371 0.0432 0.002 ]
entropy correction =  -0.04329849710156534
cycle= 15 E= -12.8077969409955  delta_E= 4.53e-06  |g|= 0.00288  |ddm|= 0.0119
HOMO:  -0.3040513090018602 LUMO:  -0.3022035958968221
Fermi energy:      -0.3036550467
[2.     2.     2.     2.     1.847  1.8397 1.8365 1.0595 1.0396 0.8559
 0.739  0.7377 0.0431 0.002 ]
entropy correction =  -0.04327732180152948
cycle= 16 E= -12.8077996468853  delta_E= -2.71e-06  |g|= 0.00284  |ddm|= 0.0116
HOMO:  -0.304138621197264 LUMO:  -0.302239038449665
Fermi energy:      -0.3037115188
[2.     2.     2.     2.     1.8463 1.8399 1.8368 1.0615 1.0427 0.8538
 0.7383 0.7357 0.043  0.002 ]
entropy correction =  -0.04326682458198897
cycle= 17 E= -12.8077978655234  delta_E= 1.78e-06  |g|= 0.00336  |ddm|= 0.00999
HOMO:  -0.30414541840954656 LUMO:  -0.3022344202967796
Fermi energy:      -0.3037102767
[2.     2.     2.     2.     1.8472 1.8402 1.836  1.0605 1.0435 0.8535
 0.7382 0.736  0.043  0.002 ]
entropy correction =  -0.04326155091992453
cycle= 18 E= -12.807805842159  delta_E= -7.98e-06  |g|= 0.000416  |ddm|= 0.00688
HOMO:  -0.30414438593195375 LUMO:  -0.3022334562511779
Fermi energy:      -0.3037093309
[2.     2.     2.     2.     1.847  1.8402 1.8362 1.0604 1.0435 0.8535
 0.7383 0.7359 0.043  0.002 ]
entropy correction =  -0.043261309421396506
cycle= 19 E= -12.8078059232241  delta_E= -8.11e-08  |g|= 0.000361  |ddm|= 0.00144
HOMO:  -0.3041473357136306 LUMO:  -0.3022362429987406
Fermi energy:      -0.3037113675
[2.     2.     2.     2.     1.8467 1.8401 1.8364 1.0605 1.0436 0.8535
 0.7386 0.7355 0.043  0.002 ]
entropy correction =  -0.043262686564569476
cycle= 20 E= -12.807804422609  delta_E= 1.5e-06  |g|= 0.00141  |ddm|= 0.00317
HOMO:  -0.30415575214703217 LUMO:  -0.3022441730090358
Fermi energy:      -0.3037193930
[2.     2.     2.     2.     1.847  1.84   1.836  1.061  1.0436 0.8535
 0.738  0.7358 0.043  0.002 ]
entropy correction =  -0.04326517237981764
cycle= 21 E= -12.8078059728569  delta_E= -1.55e-06  |g|= 0.0002  |ddm|= 0.00303
HOMO:  -0.304149633933621 LUMO:  -0.3022380050135368
Fermi energy:      -0.3037130504
[2.     2.     2.     2.     1.847  1.8401 1.8361 1.0606 1.0436 0.8536
 0.7382 0.7358 0.043  0.002 ]
entropy correction =  -0.04326396397766284
cycle= 22 E= -12.8078060137471  delta_E= -4.09e-08  |g|= 6.65e-05  |ddm|= 0.000729
HOMO:  -0.30413996417049544 LUMO:  -0.30223291710393146
Fermi energy:      -0.3037068273
[2.     2.     2.     2.     1.847  1.8401 1.8361 1.0605 1.0433 0.8537
 0.7383 0.736  0.043  0.002 ]
entropy correction =  -0.043264262419385795
cycle= 23 E= -12.8078059640846  delta_E= 4.97e-08  |g|= 0.000281  |ddm|= 0.000616
HOMO:  -0.3041458993233531 LUMO:  -0.3022359108110285
Fermi energy:      -0.3037106845
[2.     2.     2.     2.     1.847  1.8401 1.8361 1.0605 1.0435 0.8536
 0.7383 0.7359 0.043  0.002 ]
entropy correction =  -0.04326372711552751
cycle= 24 E= -12.8078060181008  delta_E= -5.4e-08  |g|= 2.11e-05  |ddm|= 0.000513
HOMO:  -0.30414606663483834 LUMO:  -0.30223611329711336
Fermi energy:      -0.3037110027
[2.     2.     2.     2.     1.847  1.8401 1.8361 1.0606 1.0435 0.8536
 0.7382 0.7359 0.043  0.002 ]
entropy correction =  -0.0432635974674468
cycle= 25 E= -12.8078060181412  delta_E= -4.04e-11  |g|= 2.14e-05  |ddm|= 9.91e-05
HOMO:  -0.30414894056643044 LUMO:  -0.30223716818025176
Fermi energy:      -0.3037123612
[2.     2.     2.     2.     1.847  1.8401 1.8361 1.0605 1.0436 0.8535
 0.7383 0.7358 0.043  0.002 ]
entropy correction =  -0.04326342417845016
Extra cycle  E= -12.80780599487  delta_E= 2.33e-08  |g|= 0.000171  |ddm|= 0.00043
entropy correction =  -0.04326342417845016
rks_ao.ne_frozen =  0
Set gradient conv threshold to 3.16228e-05
Initial guess from hcore.
HOMO:  -2.533414019423437 LUMO:  -2.531759521704872
Fermi energy:      -2.5361705795
[2.0000e+00 2.0000e+00 2.0000e+00 2.0000e+00 2.0000e+00 2.0000e+00
 2.0000e+00 1.9999e+00 7.3112e-01 5.8544e-01 2.7679e-01 2.5302e-01
 7.7532e-02 7.5480e-02 6.8126e-04]
tot grids = 190200
init E= -9.46934418714701
HOMO:  0.037151689848688475 LUMO:  0.039494120977386526
Fermi energy:       0.0354474430
[2.     2.     2.     2.     2.     2.     1.9962 0.9697 0.8312 0.6161
 0.5516 0.3238 0.195  0.192  0.1702 0.0554 0.0517 0.047 ]
entropy correction =  -0.043197265902629296
cycle= 1 E= -11.1392603890197  delta_E= -1.67  |g|= 2.05  |ddm|= 7.45
HOMO:  -0.4069153211995996 LUMO:  -0.40581104094351517
Fermi energy:      -0.4070027370
[2.0000e+00 2.0000e+00 2.0000e+00 2.0000e+00 2.0000e+00 2.0000e+00
 1.9890e+00 1.9786e+00 9.9126e-01 8.8139e-01 6.7966e-02 5.9398e-02
 2.0460e-02 8.9645e-03 1.7647e-03 1.1802e-03]
entropy correction =  -0.018524563796626595
cycle= 2 E= -10.7022294962423  delta_E= 0.437  |g|= 2.11  |ddm|= 7.17
HOMO:  -0.27461821742014164 LUMO:  -0.26579868276312835
Fermi energy:      -0.2708520634
[2.0000e+00 2.0000e+00 2.0000e+00 2.0000e+00 2.0000e+00 2.0000e+00
 1.9714e+00 1.3934e+00 1.3598e+00 5.3370e-01 3.0274e-01 2.9215e-01
 5.2273e-02 4.9741e-02 4.4127e-02 6.4481e-04]
entropy correction =  -0.030828925525458
cycle= 3 E= -12.5060671463806  delta_E= -1.8  |g|= 0.591  |ddm|= 2.14
HOMO:  -0.2428106131837271 LUMO:  -0.23216089820728034
Fermi energy:      -0.2378374272
[2.0000e+00 2.0000e+00 2.0000e+00 2.0000e+00 2.0000e+00 1.9999e+00
 1.9803e+00 1.8630e+00 1.4600e+00 4.8637e-01 1.1949e-01 8.6291e-02
 3.2420e-03 1.3961e-03]
entropy correction =  -0.018657402257962002
cycle= 4 E= -11.8943667842487  delta_E= 0.612  |g|= 1.01  |ddm|= 2.25
HOMO:  -0.2119174414417727 LUMO:  -0.21051222918850307
Fermi energy:      -0.2124864509
[2.     2.     2.     2.     2.     2.     1.9001 1.2656 0.9432 0.8051
 0.5583 0.2418 0.1764 0.0595 0.0455 0.0045]
entropy correction =  -0.03739199371871478
cycle= 5 E= -12.7102099855889  delta_E= -0.816  |g|= 0.22  |ddm|= 1.91
HOMO:  -0.20174361375687125 LUMO:  -0.19955287245279046
Fermi energy:      -0.2009728764
[2.0000e+00 2.0000e+00 2.0000e+00 2.0000e+00 2.0000e+00 2.0000e+00
 1.9274e+00 1.4229e+00 1.0769e+00 8.5895e-01 4.9579e-01 1.0160e-01
 6.2334e-02 4.2581e-02 1.1390e-02 1.4362e-04]
entropy correction =  -0.031687915278151166
cycle= 6 E= -12.5686152184902  delta_E= 0.142  |g|= 0.468  |ddm|=  1.5
HOMO:  -0.19027791716900994 LUMO:  -0.18741977809952257
Fermi energy:      -0.1899279751
[2.     2.     2.     2.     2.     2.     1.9077 1.1329 1.035  0.7543
 0.593  0.3239 0.1206 0.0761 0.0508 0.0056]
entropy correction =  -0.038043786911969614
cycle= 7 E= -12.7235034351671  delta_E= -0.155  |g|= 0.168  |ddm|= 0.891
HOMO:  -0.190094540129393 LUMO:  -0.18628159449235532
Fermi energy:      -0.1894710984
[2.     2.     2.     2.     2.     2.     1.9096 1.1477 1.0623 0.6914
 0.5864 0.3845 0.1151 0.0563 0.0399 0.0069]
entropy correction =  -0.03766030233064446
cycle= 8 E= -12.6944867259063  delta_E= 0.029  |g|= 0.251  |ddm|= 0.644
HOMO:  -0.1893158319621566 LUMO:  -0.1865259785606691
Fermi energy:      -0.1890131556
[2.     2.     2.     2.     2.     2.     1.9023 1.0818 1.0303 0.7563
 0.6287 0.3426 0.1161 0.073  0.0616 0.0073]
entropy correction =  -0.038611296516471744
cycle= 9 E= -12.7376923426548  delta_E= -0.0432  |g|= 0.105  |ddm|= 0.416
HOMO:  -0.1879160168186514 LUMO:  -0.18417783267256632
Fermi energy:      -0.1873811848
[2.     2.     2.     2.     2.     2.     1.8991 1.0793 1.0534 0.6902
 0.6437 0.3707 0.1144 0.0743 0.0658 0.009 ]
entropy correction =  -0.03885243132495777
cycle= 10 E= -12.7442434572584  delta_E= -0.00655  |g|= 0.0564  |ddm|= 0.283
HOMO:  -0.18836606836592373 LUMO:  -0.18440454549603594
Fermi energy:      -0.1878271049
[2.     2.     2.     2.     2.     2.     1.8991 1.0893 1.0538 0.6705
 0.6548 0.3707 0.1115 0.0734 0.0678 0.009 ]
entropy correction =  -0.03879390119043108
cycle= 11 E= -12.745507208671  delta_E= -0.00126  |g|= 0.0409  |ddm|= 0.104
HOMO:  -0.18856789626366158 LUMO:  -0.18464419298517898
Fermi energy:      -0.1880519802
[2.     2.     2.     2.     2.     2.     1.8992 1.0811 1.0515 0.6718
 0.6662 0.3691 0.1111 0.0721 0.069  0.0089]
entropy correction =  -0.038826812200264925
cycle= 12 E= -12.7463156597178  delta_E= -0.000808  |g|= 0.0259  |ddm|= 0.0896
HOMO:  -0.1886244465090635 LUMO:  -0.1847561146940118
Fermi energy:      -0.1881060892
[2.     2.     2.     2.     2.     2.     1.8991 1.0772 1.0518 0.677
 0.6655 0.3684 0.111  0.0728 0.0683 0.0089]
entropy correction =  -0.038837365240158135
cycle= 13 E= -12.746623441119  delta_E= -0.000308  |g|= 0.0171  |ddm|= 0.0316
HOMO:  -0.18843503368097278 LUMO:  -0.18454394311320838
Fermi energy:      -0.1879056505
[2.     2.     2.     2.     2.     2.     1.8992 1.0795 1.0529 0.6759
 0.6614 0.3701 0.1105 0.0726 0.069  0.009 ]
entropy correction =  -0.03883242962815997
cycle= 14 E= -12.7468183262792  delta_E= -0.000195  |g|= 0.00765  |ddm|= 0.0254
HOMO:  -0.18857156601601954 LUMO:  -0.18469587769483456
Fermi energy:      -0.1880662495
[2.     2.     2.     2.     2.     2.     1.8991 1.0792 1.0505 0.6752
 0.6671 0.3684 0.1104 0.0724 0.0688 0.0089]
entropy correction =  -0.03883124178900185
cycle= 15 E= -12.7468515895733  delta_E= -3.33e-05  |g|= 0.004  |ddm|= 0.0167
HOMO:  -0.1886249535787766 LUMO:  -0.1848063018689917
Fermi energy:      -0.1881158283
[2.     2.     2.     2.     2.     2.     1.899  1.0777 1.0509 0.6806
 0.6633 0.3678 0.1107 0.0725 0.0686 0.0089]
entropy correction =  -0.03883585312656335
cycle= 16 E= -12.7468616143493  delta_E= -1e-05  |g|= 0.00229  |ddm|= 0.0135
HOMO:  -0.18856086297338204 LUMO:  -0.184718327650477
Fermi energy:      -0.1880486721
[2.     2.     2.     2.     2.     2.     1.899  1.0783 1.0512 0.6788
 0.6635 0.3684 0.1107 0.0725 0.0688 0.0089]
entropy correction =  -0.03883809718439236
cycle= 17 E= -12.7468659921564  delta_E= -4.38e-06  |g|= 0.000336  |ddm|= 0.00441
HOMO:  -0.18856696566834222 LUMO:  -0.18472233794845236
Fermi energy:      -0.1880551143
[2.     2.     2.     2.     2.     2.     1.899  1.0782 1.0511 0.6785
 0.6639 0.3684 0.1107 0.0725 0.0688 0.0089]
entropy correction =  -0.03883747677094923
cycle= 18 E= -12.746866037925  delta_E= -4.58e-08  |g|= 0.000236  |ddm|= 0.000873
HOMO:  -0.1885625947858692 LUMO:  -0.18472000190176274
Fermi energy:      -0.1880504744
[2.     2.     2.     2.     2.     2.     1.899  1.0783 1.0512 0.6787
 0.6635 0.3684 0.1107 0.0725 0.0688 0.0089]
entropy correction =  -0.03883764566056635
cycle= 19 E= -12.7468660013067  delta_E= 3.66e-08  |g|= 0.000319  |ddm|= 0.00128
HOMO:  -0.1885693272434311 LUMO:  -0.18472604132949808
Fermi energy:      -0.1880570568
[2.     2.     2.     2.     2.     2.     1.899  1.0782 1.0512 0.6787
 0.6638 0.3683 0.1107 0.0725 0.0688 0.0089]
entropy correction =  -0.038837630876208604
cycle= 20 E= -12.7468660602401  delta_E= -5.89e-08  |g|= 0.000182  |ddm|= 0.000913
HOMO:  -0.18856648383896402 LUMO:  -0.18472337950590237
Fermi energy:      -0.1880544890
[2.     2.     2.     2.     2.     2.     1.899  1.0782 1.0512 0.6787
 0.6637 0.3684 0.1107 0.0725 0.0688 0.0089]
entropy correction =  -0.03883765573107833
cycle= 21 E= -12.7468660870955  delta_E= -2.69e-08  |g|= 5.01e-05  |ddm|= 0.000452
HOMO:  -0.18856589836526508 LUMO:  -0.18472318672701074
Fermi energy:      -0.1880542457
[2.     2.     2.     2.     2.     2.     1.899  1.0783 1.0511 0.6787
 0.6637 0.3684 0.1107 0.0725 0.0688 0.0089]
entropy correction =  -0.038837705672251616
cycle= 22 E= -12.7468660758137  delta_E= 1.13e-08  |g|= 0.000125  |ddm|= 0.000356
HOMO:  -0.18856675900749612 LUMO:  -0.18472371497616297
Fermi energy:      -0.1880548904
[2.     2.     2.     2.     2.     2.     1.899  1.0782 1.0511 0.6787
 0.6637 0.3684 0.1107 0.0725 0.0688 0.0089]
entropy correction =  -0.03883768093546824
cycle= 23 E= -12.746866088292  delta_E= -1.25e-08  |g|= 3.11e-05  |ddm|= 0.000276
HOMO:  -0.1885661574302219 LUMO:  -0.1847228323048891
Fermi energy:      -0.1880542560
[2.     2.     2.     2.     2.     2.     1.899  1.0782 1.0511 0.6787
 0.6637 0.3684 0.1107 0.0725 0.0688 0.0089]
entropy correction =  -0.03883769059222494
cycle= 24 E= -12.7468660888638  delta_E= -5.72e-10  |g|= 1.63e-05  |ddm|= 7.55e-05
HOMO:  -0.18856625918904904 LUMO:  -0.18472369602703495
Fermi energy:      -0.1880543704
[2.     2.     2.     2.     2.     2.     1.899  1.0782 1.0511 0.6787
 0.6637 0.3684 0.1107 0.0725 0.0688 0.0089]
entropy correction =  -0.0388376708365444
Extra cycle  E= -12.7468660816539  delta_E= 7.21e-09  |g|= 9.37e-05  |ddm|= 0.000228
degenerate subspace detected:
nsub = 5
subspace 1:
5, 6, 7, 
subspace 2:
8, 9, 
subspace 3:
11, 12, 
subspace 4:
15, 16, 
subspace 5:
25, 26, 

 Adding contributions from fluctuation of occupation numbers.
degenerate subspace detected:
nsub = 8
subspace 1:
1, 2, 
subspace 2:
5, 6, 
subspace 3:
8, 9, 
subspace 4:
10, 11, 
subspace 5:
14, 15, 
subspace 6:
20, 21, 22, 
subspace 7:
27, 28, 
subspace 8:
38, 39, 

 Adding contributions from fluctuation of occupation numbers.
entropy correction =  -0.0388376708365444
2-norm (grad),       max(grad):
0.1400520740776343 ,  0.012788330258721177
time of hessian construction : 25.650  (cpu),  0.663  (wall) 
time of hessian construction : 20.820  (cpu),  0.521  (wall) 
f =  0.009807291726723582
|umat| =  2.552998607262191
rks_ao.ne_frozen =  0
Set gradient conv threshold to 3.16228e-05
Initial guess from hcore.
HOMO:  -3.536058610009135 LUMO:  -3.515216537788341
Fermi energy:      -3.5256375771
[2.     2.     2.     2.     2.     2.     2.     2.     1.7787 0.2213]
tot grids = 190200
init E= -46.4285176839915
HOMO:  -0.4549181650166666 LUMO:  -0.3906423998508252
Fermi energy:      -0.4232439915
[2.0000e+00 2.0000e+00 2.0000e+00 2.0000e+00 2.0000e+00 2.0000e+00
 2.0000e+00 2.0000e+00 1.9965e+00 2.9421e-03 5.7320e-04]
entropy correction =  -0.0002695624923183858
cycle= 1 E= -48.1004907452211  delta_E= -1.67  |g|= 1.76  |ddm|=   35
HOMO:  -0.9038779758755293 LUMO:  -0.8849775894857219
Fermi energy:      -0.8944379006
[2.0000e+00 2.0000e+00 2.0000e+00 2.0000e+00 2.0000e+00 2.0000e+00
 2.0000e+00 2.0000e+00 1.7371e+00 2.6202e-01 8.3526e-04]
entropy correction =  -0.007816252458983996
cycle= 2 E= -48.6278398620708  delta_E= -0.527  |g|= 1.32  |ddm|= 14.6
HOMO:  -0.727519833317588 LUMO:  -0.7046025825373939
Fermi energy:      -0.7160659106
[2.0000e+00 2.0000e+00 2.0000e+00 2.0000e+00 2.0000e+00 2.0000e+00
 2.0000e+00 2.0000e+00 1.8162e+00 1.8346e-01 3.2937e-04]
entropy correction =  -0.0061511434520566625
cycle= 3 E= -49.0112372690302  delta_E= -0.383  |g|= 0.688  |ddm|= 7.84
HOMO:  -0.6949296964450091 LUMO:  -0.6899259767687621
Fermi energy:      -0.6924275386
[2.     2.     2.     2.     2.     2.     2.     1.9999 1.2451 0.7549]
entropy correction =  -0.01326524501504635
cycle= 4 E= -49.1754612637987  delta_E= -0.164  |g|= 0.22  |ddm|= 2.41
HOMO:  -0.7117455234312742 LUMO:  -0.68688752251263
Fermi energy:      -0.6993293497
[2.0000e+00 2.0000e+00 2.0000e+00 2.0000e+00 2.0000e+00 2.0000e+00
 2.0000e+00 2.0000e+00 1.8459e+00 1.5336e-01 7.2021e-04]
entropy correction =  -0.005455938448590341
cycle= 5 E= -49.184729477713  delta_E= -0.00927  |g|= 0.158  |ddm|= 2.09
HOMO:  -0.7146857024713923 LUMO:  -0.7001110571340469
Fermi energy:      -0.7074007904
[2.0000e+00 2.0000e+00 2.0000e+00 2.0000e+00 2.0000e+00 2.0000e+00
 2.0000e+00 2.0000e+00 1.6221e+00 3.7756e-01 2.9836e-04]
entropy correction =  -0.00970868812484341
cycle= 6 E= -49.1955245558441  delta_E= -0.0108  |g|= 0.0551  |ddm|= 0.776
HOMO:  -0.7162336098855506 LUMO:  -0.7018357336238235
Fermi energy:      -0.7090370942
[2.0000e+00 2.0000e+00 2.0000e+00 2.0000e+00 2.0000e+00 2.0000e+00
 2.0000e+00 2.0000e+00 1.6167e+00 3.8301e-01 3.0816e-04]
entropy correction =  -0.00978738152123334
cycle= 7 E= -49.1967489538059  delta_E= -0.00122  |g|= 0.0248  |ddm|= 0.274
HOMO:  -0.7147821850634672 LUMO:  -0.7012721874657831
Fermi energy:      -0.7080291249
[2.0000e+00 2.0000e+00 2.0000e+00 2.0000e+00 2.0000e+00 2.0000e+00
 2.0000e+00 2.0000e+00 1.5885e+00 4.1129e-01 2.6495e-04]
entropy correction =  -0.01017998589535119
cycle= 8 E= -49.1970253099003  delta_E= -0.000276  |g|= 0.00319  |ddm|=  0.1
HOMO:  -0.7150415686456427 LUMO:  -0.7013861784656323
Fermi energy:      -0.7082158705
[2.0000e+00 2.0000e+00 2.0000e+00 2.0000e+00 2.0000e+00 2.0000e+00
 2.0000e+00 2.0000e+00 1.5932e+00 4.0655e-01 2.6898e-04]
entropy correction =  -0.010115892513427623
cycle= 9 E= -49.1970283984643  delta_E= -3.09e-06  |g|= 0.00119  |ddm|= 0.0255
HOMO:  -0.7150055634007781 LUMO:  -0.701499217484882
Fermi energy:      -0.7082543401
[2.0000e+00 2.0000e+00 2.0000e+00 2.0000e+00 2.0000e+00 2.0000e+00
 2.0000e+00 2.0000e+00 1.5883e+00 4.1141e-01 2.6526e-04]
entropy correction =  -0.010181591324681358
cycle= 10 E= -49.1970294410322  delta_E= -1.04e-06  |g|= 0.000412  |ddm|= 0.0149
HOMO:  -0.7150161838596065 LUMO:  -0.7014679167085752
Fermi energy:      -0.7082440144
[2.0000e+00 2.0000e+00 2.0000e+00 2.0000e+00 2.0000e+00 2.0000e+00
 2.0000e+00 2.0000e+00 1.5897e+00 4.1004e-01 2.6636e-04]
entropy correction =  -0.010163126361417805
cycle= 11 E= -49.1970295720395  delta_E= -1.31e-07  |g|= 4.94e-05  |ddm|= 0.00412
HOMO:  -0.7150141364942285 LUMO:  -0.7014686548801318
Fermi energy:      -0.7082433585
[2.0000e+00 2.0000e+00 2.0000e+00 2.0000e+00 2.0000e+00 2.0000e+00
 2.0000e+00 2.0000e+00 1.5896e+00 4.1013e-01 2.6627e-04]
entropy correction =  -0.010164353579383225
cycle= 12 E= -49.1970295734843  delta_E= -1.44e-09  |g|= 7.68e-06  |ddm|= 0.000357
HOMO:  -0.7150142831990661 LUMO:  -0.7014693993536514
Fermi energy:      -0.7082438039
[2.0000e+00 2.0000e+00 2.0000e+00 2.0000e+00 2.0000e+00 2.0000e+00
 2.0000e+00 2.0000e+00 1.5896e+00 4.1015e-01 2.6625e-04]
entropy correction =  -0.010164616757166758
cycle= 13 E= -49.197029573529  delta_E= -4.47e-11  |g|= 1.42e-06  |ddm|= 6.22e-05
HOMO:  -0.7150142070138011 LUMO:  -0.7014694423389257
Fermi energy:      -0.7082437872
[2.0000e+00 2.0000e+00 2.0000e+00 2.0000e+00 2.0000e+00 2.0000e+00
 2.0000e+00 2.0000e+00 1.5896e+00 4.1015e-01 2.6625e-04]
entropy correction =  -0.010164669377557074
Extra cycle  E= -49.1970295735279  delta_E= 1.09e-12  |g|= 2.19e-06  |ddm|= 1.55e-05
entropy correction =  -0.010164669377557074
rks_ao.ne_frozen =  0
Set gradient conv threshold to 3.16228e-05
Initial guess from hcore.
HOMO:  -2.7574688233278435 LUMO:  -2.7158475932570374
Fermi energy:      -2.7365541125
[2.0000e+00 2.0000e+00 2.0000e+00 2.0000e+00 2.0000e+00 2.0000e+00
 2.0000e+00 1.9861e+00 1.9700e+00 3.1306e-02 1.2161e-02 5.4328e-04]
tot grids = 190200
init E= -49.8792897056366
HOMO:  -0.39119396302158216 LUMO:  -0.37164500566863784
Fermi energy:      -0.3814156011
[2.     2.     2.     2.     2.     2.     2.     1.9997 1.7521 0.2482]
entropy correction =  -0.007513542267077131
cycle= 1 E= -50.9057838617485  delta_E= -1.03  |g|= 1.38  |ddm|= 16.4
HOMO:  -0.569437519091262 LUMO:  -0.5327231718400529
Fermi energy:      -0.5510803904
[2.     2.     2.     2.     2.     2.     2.     2.     1.9504 0.0496]
entropy correction =  -0.0023242131918365266
cycle= 2 E= -49.9556966695345  delta_E= 0.95  |g|= 2.02  |ddm|= 10.3
HOMO:  -0.5239598753391564 LUMO:  -0.48435457107811525
Fermi energy:      -0.5041478640
[2.     2.     2.     2.     2.     2.     2.     1.9999 1.9627 0.0375]
entropy correction =  -0.001865900161281242
cycle= 3 E= -51.4395238591759  delta_E= -1.48  |g|= 0.334  |ddm|= 6.68
HOMO:  -0.5063862708719022 LUMO:  -0.49044895428535357
Fermi energy:      -0.4984138141
[2.     2.     2.     2.     2.     2.     2.     1.9996 1.6625 0.3379]
entropy correction =  -0.009101626601552336
cycle= 4 E= -51.4578120013127  delta_E= -0.0183  |g|= 0.196  |ddm|= 1.92
HOMO:  -0.5145779758670462 LUMO:  -0.4809611841890617
Fermi energy:      -0.4977191741
[2.     2.     2.     2.     2.     2.     2.     1.9987 1.9336 0.0677]
entropy correction =  -0.0029896072866699252
cycle= 5 E= -51.4675983941291  delta_E= -0.00979  |g|= 0.156  |ddm|=  1.4
HOMO:  -0.5139777481177935 LUMO:  -0.48433929723477087
Fermi energy:      -0.4991133048
[2.     2.     2.     2.     2.     2.     2.     1.9983 1.9027 0.099 ]
entropy correction =  -0.0039845715819040875
cycle= 6 E= -51.4765328588603  delta_E= -0.00893  |g|= 0.0428  |ddm|= 0.831
HOMO:  -0.5103652383916288 LUMO:  -0.48473312581240025
Fermi energy:      -0.4975259235
[2.     2.     2.     2.     2.     2.     2.     1.9988 1.8575 0.1437]
entropy correction =  -0.005204151114770418
cycle= 7 E= -51.4772911812034  delta_E= -0.000758  |g|= 0.0198  |ddm|= 0.332
HOMO:  -0.5108037996758571 LUMO:  -0.4843589040086429
Fermi energy:      -0.4975540465
[2.     2.     2.     2.     2.     2.     2.     1.9986 1.868  0.1333]
entropy correction =  -0.004936941707508155
cycle= 8 E= -51.4774520425276  delta_E= -0.000161  |g|= 0.00481  |ddm|= 0.102
HOMO:  -0.5107241544001976 LUMO:  -0.4843988842148442
Fermi energy:      -0.4975343980
[2.     2.     2.     2.     2.     2.     2.     1.9986 1.8665 0.1348]
entropy correction =  -0.004976416998165427
cycle= 9 E= -51.477462767494  delta_E= -1.07e-05  |g|= 0.000661  |ddm|= 0.0288
HOMO:  -0.5107543225453405 LUMO:  -0.4844059722889376
Fermi energy:      -0.4975528801
[2.     2.     2.     2.     2.     2.     2.     1.9986 1.8668 0.1345]
entropy correction =  -0.004968984698915837
cycle= 10 E= -51.4774630181096  delta_E= -2.51e-07  |g|= 0.00019  |ddm|= 0.00474
HOMO:  -0.5107438738836845 LUMO:  -0.4844084681656315
Fermi energy:      -0.4975489772
[2.     2.     2.     2.     2.     2.     2.     1.9986 1.8667 0.1347]
entropy correction =  -0.004973167604570138
cycle= 11 E= -51.4774630313466  delta_E= -1.32e-08  |g|= 7.48e-05  |ddm|= 0.0011
HOMO:  -0.5107451083702219 LUMO:  -0.48440369387729504
Fermi energy:      -0.4975471833
[2.     2.     2.     2.     2.     2.     2.     1.9986 1.8667 0.1346]
entropy correction =  -0.004971207199451735
cycle= 12 E= -51.4774630340951  delta_E= -2.75e-09  |g|= 7.01e-06  |ddm|= 0.000354
HOMO:  -0.5107457054293473 LUMO:  -0.48440381972157787
Fermi energy:      -0.4975475422
[2.     2.     2.     2.     2.     2.     2.     1.9986 1.8667 0.1346]
entropy correction =  -0.004971054631501862
cycle= 13 E= -51.477463034114  delta_E= -1.9e-11  |g|= 1.68e-06  |ddm|= 3.71e-05
HOMO:  -0.5107455913184127 LUMO:  -0.48440380806192695
Fermi energy:      -0.4975474800
[2.     2.     2.     2.     2.     2.     2.     1.9986 1.8667 0.1346]
entropy correction =  -0.004971087686767287
Extra cycle  E= -51.4774630341122  delta_E= 1.83e-12  |g|= 2.97e-06  |ddm|= 1.66e-05
 Adding contributions from fluctuation of occupation numbers.
 Adding contributions from fluctuation of occupation numbers.
entropy correction =  -0.004971087686767287
2-norm (grad),       max(grad):
319.7314818132989 ,  51.07098465928557
time of hessian construction : 15.570  (cpu),  0.390  (wall) 
time of hessian construction : 12.730  (cpu),  0.319  (wall) 
f =  51114.110231263934
|umat| =  2.0476562144708135
rks_ao.ne_frozen =  0
Set gradient conv threshold to 3.16228e-05
Initial guess from hcore.
HOMO:  -3.4854222244241493 LUMO:  -3.2731526344663235
Fermi energy:      -3.3775660484
[2. 2. 2. 2. 2. 2. 2. 2. 2.]
tot grids = 190200
init E= -9.53461565285793
HOMO:  -0.04807938232938014 LUMO:  -0.031076215964407856
Fermi energy:      -0.0388157292
[2.0000e+00 2.0000e+00 2.0000e+00 2.0000e+00 2.0000e+00 2.0000e+00
 1.9612e+00 1.9585e+00 1.7289e+00 3.5078e-01 3.0417e-04 2.9334e-04]
entropy correction =  -0.010608958613233932
cycle= 1 E= -8.06934094777488  delta_E= 1.47  |g|= 3.14  |ddm|= 8.63
HOMO:  -0.8748451507482484 LUMO:  -0.7280149231597499
Fermi energy:      -0.7998900254
[2. 2. 2. 2. 2. 2. 2. 2. 2.]
entropy correction =  -1.9440971753377267e-07
cycle= 2 E= -10.3916852367119  delta_E= -2.32  |g|= 2.24  |ddm|= 7.83
HOMO:  -0.399125188985232 LUMO:  -0.3742343113214144
Fermi energy:      -0.3868032724
[2.     2.     2.     2.     1.9953 1.9818 1.9808 1.8492 1.8432 0.1498
 0.1486 0.0407 0.0054 0.0053]
entropy correction =  -0.013320387117101425
cycle= 3 E= -12.7050744905657  delta_E= -2.31  |g|= 0.453  |ddm|= 5.29
HOMO:  -0.2977194839477969 LUMO:  -0.2970285630878347
Fermi energy:      -0.2989986843
[2.0000e+00 2.0000e+00 2.0000e+00 2.0000e+00 1.8982e+00 1.8941e+00
 1.7679e+00 1.2629e+00 8.7277e-01 8.0550e-01 7.4351e-01 6.7188e-01
 8.1824e-02 1.4373e-03]
entropy correction =  -0.04259615069546539
cycle= 4 E= -12.786462741792  delta_E= -0.0814  |g|= 0.159  |ddm|= 1.53
HOMO:  -0.30736562027583153 LUMO:  -0.3008794203895501
Fermi energy:      -0.3050676389
[2.0000e+00 2.0000e+00 2.0000e+00 2.0000e+00 1.9528e+00 1.9307e+00
 1.8784e+00 1.3882e+00 1.2258e+00 6.0406e-01 5.2537e-01 4.5484e-01
 3.8649e-02 1.2061e-03]
entropy correction =  -0.035997676661370936
cycle= 5 E= -12.5461597707832  delta_E= 0.24  |g|= 0.629  |ddm|= 1.29
HOMO:  -0.3134360169631525 LUMO:  -0.3082589305860963
Fermi energy:      -0.3112377741
[2.0000e+00 2.0000e+00 2.0000e+00 2.0000e+00 1.9036e+00 1.8735e+00
 1.8414e+00 1.2395e+00 1.2164e+00 7.1062e-01 5.9962e-01 5.7845e-01
 3.5336e-02 1.6439e-03]
entropy correction =  -0.039981259072455935
cycle= 6 E= -12.7972838856786  delta_E= -0.251  |g|= 0.128  |ddm|= 0.966
HOMO:  -0.3132569870809715 LUMO:  -0.3095989440027548
Fermi energy:      -0.3110900877
[2.0000e+00 2.0000e+00 2.0000e+00 2.0000e+00 1.8692e+00 1.8575e+00
 1.8123e+00 1.2722e+00 1.2134e+00 8.5198e-01 5.8661e-01 4.9970e-01
 3.5361e-02 1.7946e-03]
entropy correction =  -0.040811291338232095
cycle= 7 E= -12.7815364478418  delta_E= 0.0157  |g|= 0.198  |ddm|= 0.488
HOMO:  -0.31095596618551374 LUMO:  -0.30833435917191754
Fermi energy:      -0.3097109354
[2.0000e+00 2.0000e+00 2.0000e+00 2.0000e+00 1.8514e+00 1.8342e+00
 1.8239e+00 1.1549e+00 1.1239e+00 8.6321e-01 6.7243e-01 6.3210e-01
 4.2059e-02 1.8953e-03]
entropy correction =  -0.04270642984035192
cycle= 8 E= -12.8033754934917  delta_E= -0.0218  |g|= 0.0806  |ddm|= 0.442
HOMO:  -0.3066428682869584 LUMO:  -0.3061426960484362
Fermi energy:      -0.3065429996
[2.0000e+00 2.0000e+00 2.0000e+00 2.0000e+00 1.8857e+00 1.8373e+00
 1.8033e+00 1.1202e+00 1.0100e+00 9.5999e-01 6.9704e-01 6.4166e-01
 4.2988e-02 1.8276e-03]
entropy correction =  -0.042790719086771595
cycle= 9 E= -12.7994167170856  delta_E= 0.00396  |g|= 0.0971  |ddm|= 0.35
HOMO:  -0.30264352588427046 LUMO:  -0.30167477932704034
Fermi energy:      -0.3027569325
[2.0000e+00 2.0000e+00 2.0000e+00 2.0000e+00 1.8719e+00 1.8455e+00
 1.8411e+00 1.0166e+00 9.8866e-01 8.9221e-01 7.6237e-01 7.3602e-01
 4.3975e-02 1.7951e-03]
entropy correction =  -0.04296437160489572
cycle= 10 E= -12.8004458811552  delta_E= -0.00103  |g|= 0.102  |ddm|= 0.303
HOMO:  -0.30270565865096644 LUMO:  -0.30167901504879996
Fermi energy:      -0.3028978572
[2.0000e+00 2.0000e+00 2.0000e+00 2.0000e+00 1.8652e+00 1.8640e+00
 1.8338e+00 1.0471e+00 9.8078e-01 8.7872e-01 7.7972e-01 7.0745e-01
 4.1425e-02 1.8599e-03]
entropy correction =  -0.04279156109756751
cycle= 11 E= -12.8045537120135  delta_E= -0.00411  |g|= 0.0615  |ddm|= 0.282
HOMO:  -0.3041160037103059 LUMO:  -0.30208384714156056
Fermi energy:      -0.3036941248
[2.0000e+00 2.0000e+00 2.0000e+00 2.0000e+00 1.8513e+00 1.8408e+00
 1.8339e+00 1.0847e+00 1.0422e+00 8.4035e-01 7.3444e-01 7.2818e-01
 4.2267e-02 1.9917e-03]
entropy correction =  -0.043145153171399636
cycle= 12 E= -12.8076737851377  delta_E= -0.00312  |g|= 0.0104  |ddm|= 0.152
HOMO:  -0.30469668259268634 LUMO:  -0.3024673484436813
Fermi energy:      -0.3040739935
[2.     2.     2.     2.     1.8475 1.8378 1.8334 1.0792 1.0622 0.8407
 0.7312 0.7235 0.0424 0.002 ]
entropy correction =  -0.04320978953378583
cycle= 13 E= -12.8077042569085  delta_E= -3.05e-05  |g|= 0.0108  |ddm|= 0.0509
HOMO:  -0.3041457292102807 LUMO:  -0.3022373246809061
Fermi energy:      -0.3037109806
[2.     2.     2.     2.     1.8469 1.8403 1.8363 1.0608 1.0434 0.8537
 0.7381 0.7355 0.043  0.002 ]
entropy correction =  -0.043258499371658495
cycle= 14 E= -12.8078015407789  delta_E= -9.73e-05  |g|= 0.00251  |ddm|= 0.0308
HOMO:  -0.30404118324396384 LUMO:  -0.30220444077596537
Fermi energy:      -0.3036304968
[2.     2.     2.     2.     1.8483 1.839  1.8353 1.0548 1.041  0.8584
 0.741  0.7371 0.0432 0.002 ]
entropy correction =  -0.04329862776455558
cycle= 15 E= -12.8077965016454  delta_E= 5.04e-06  |g|= 0.00295  |ddm|= 0.0122
HOMO:  -0.30404922296228315 LUMO:  -0.3022025995590319
Fermi energy:      -0.3036534693
[2.     2.     2.     2.     1.8471 1.8397 1.8365 1.0594 1.0396 0.8559
 0.7391 0.7377 0.0431 0.002 ]
entropy correction =  -0.04327769534937797
cycle= 16 E= -12.8077996088679  delta_E= -3.11e-06  |g|= 0.00288  |ddm|= 0.0119
HOMO:  -0.3041370347802773 LUMO:  -0.3022384678985646
Fermi energy:      -0.3037105784
[2.     2.     2.     2.     1.8462 1.8399 1.8368 1.0615 1.0426 0.8538
 0.7383 0.7357 0.043  0.002 ]
entropy correction =  -0.043267118291398
cycle= 17 E= -12.8077973244031  delta_E= 2.28e-06  |g|= 0.00349  |ddm|= 0.0103
HOMO:  -0.30414551567307335 LUMO:  -0.30223449009022774
Fermi energy:      -0.3037103542
[2.     2.     2.     2.     1.8472 1.8402 1.836  1.0605 1.0435 0.8535
 0.7382 0.736  0.043  0.002 ]
entropy correction =  -0.043261560083765506
cycle= 18 E= -12.807805952126  delta_E= -8.63e-06  |g|= 0.000402  |ddm|= 0.0071
HOMO:  -0.30414433513808437 LUMO:  -0.30223341014453087
Fermi energy:      -0.3037092882
[2.     2.     2.     2.     1.847  1.8402 1.8362 1.0604 1.0435 0.8535
 0.7383 0.7359 0.043  0.002 ]
entropy correction =  -0.04326129211545338
cycle= 19 E= -12.8078060196781  delta_E= -6.76e-08  |g|= 0.000366  |ddm|= 0.00142
HOMO:  -0.3041474430620038 LUMO:  -0.3022363794007059
Fermi energy:      -0.3037114806
[2.     2.     2.     2.     1.8467 1.8401 1.8364 1.0605 1.0436 0.8536
 0.7386 0.7355 0.043  0.002 ]
entropy correction =  -0.043262759477448516
cycle= 20 E= -12.8078045156713  delta_E= 1.5e-06  |g|= 0.00142  |ddm|= 0.00318
HOMO:  -0.3041556046915839 LUMO:  -0.30224403349788426
Fermi energy:      -0.3037192653
[2.     2.     2.     2.     1.847  1.84   1.836  1.061  1.0436 0.8535
 0.738  0.7358 0.043  0.002 ]
entropy correction =  -0.0432651255091015
cycle= 21 E= -12.8078060728748  delta_E= -1.56e-06  |g|= 0.000198  |ddm|= 0.00304
HOMO:  -0.30414958098964445 LUMO:  -0.30223795083650806
Fermi energy:      -0.3037130146
[2.     2.     2.     2.     1.847  1.8401 1.8361 1.0606 1.0436 0.8536
 0.7382 0.7358 0.043  0.002 ]
entropy correction =  -0.04326392764956864
cycle= 22 E= -12.8078061129853  delta_E= -4.01e-08  |g|= 6.56e-05  |ddm|= 0.000721
HOMO:  -0.3041400343421027 LUMO:  -0.30223293804591245
Fermi energy:      -0.3037068762
[2.     2.     2.     2.     1.847  1.8401 1.8361 1.0605 1.0433 0.8537
 0.7383 0.736  0.043  0.002 ]
entropy correction =  -0.04326423167529475
cycle= 23 E= -12.8078060657754  delta_E= 4.72e-08  |g|= 0.000274  |ddm|= 0.000604
HOMO:  -0.3041459247559491 LUMO:  -0.30223589959403885
Fermi energy:      -0.3037106985
[2.     2.     2.     2.     1.847  1.8401 1.8361 1.0605 1.0435 0.8536
 0.7382 0.7359 0.043  0.002 ]
entropy correction =  -0.043263692497288536
cycle= 24 E= -12.8078061172097  delta_E= -5.14e-08  |g|= 2.08e-05  |ddm|= 0.000502
HOMO:  -0.304146112794234 LUMO:  -0.30223610794205424
Fermi energy:      -0.3037110212
[2.     2.     2.     2.     1.847  1.8401 1.8361 1.0606 1.0435 0.8536
 0.7382 0.7359 0.043  0.002 ]
entropy correction =  -0.0432635667723806
cycle= 25 E= -12.8078061173251  delta_E= -1.15e-10  |g|= 1.93e-05  |ddm|= 9.38e-05
HOMO:  -0.30414876888261744 LUMO:  -0.30223710327207576
Fermi energy:      -0.3037123050
[2.     2.     2.     2.     1.847  1.8401 1.8361 1.0605 1.0436 0.8535
 0.7382 0.7359 0.043  0.002 ]
entropy correction =  -0.043263402077148426
Extra cycle  E= -12.8078060987573  delta_E= 1.86e-08  |g|= 0.000153  |ddm|= 0.000385
entropy correction =  -0.043263402077148426
rks_ao.ne_frozen =  0
Set gradient conv threshold to 3.16228e-05
Initial guess from hcore.
HOMO:  -2.5334140149680935 LUMO:  -2.5317594985918146
Fermi energy:      -2.5361705757
[2.0000e+00 2.0000e+00 2.0000e+00 2.0000e+00 2.0000e+00 2.0000e+00
 2.0000e+00 1.9999e+00 7.3112e-01 5.8544e-01 2.7679e-01 2.5303e-01
 7.7533e-02 7.5481e-02 6.8126e-04]
tot grids = 190200
init E= -9.46934468282842
HOMO:  0.03715171117559643 LUMO:  0.03949411332711027
Fermi energy:       0.0354474452
[2.     2.     2.     2.     2.     2.     1.9962 0.9697 0.8312 0.6161
 0.5516 0.3238 0.195  0.192  0.1702 0.0554 0.0517 0.047 ]
entropy correction =  -0.04319727027928076
cycle= 1 E= -11.1392598333197  delta_E= -1.67  |g|= 2.05  |ddm|= 7.45
HOMO:  -0.4069153329162257 LUMO:  -0.40581146441134835
Fermi energy:      -0.4070029279
[2.0000e+00 2.0000e+00 2.0000e+00 2.0000e+00 2.0000e+00 2.0000e+00
 1.9890e+00 1.9786e+00 9.9124e-01 8.8141e-01 6.7963e-02 5.9399e-02
 2.0458e-02 8.9644e-03 1.7646e-03 1.1801e-03]
entropy correction =  -0.01852449118873422
cycle= 2 E= -10.7022236697144  delta_E= 0.437  |g|= 2.11  |ddm|= 7.17
HOMO:  -0.274619219988548 LUMO:  -0.2657996184267278
Fermi energy:      -0.2708526497
[2.0000e+00 2.0000e+00 2.0000e+00 2.0000e+00 2.0000e+00 2.0000e+00
 1.9714e+00 1.3935e+00 1.3598e+00 5.3372e-01 3.0272e-01 2.9212e-01
 5.2269e-02 4.9725e-02 4.4126e-02 6.4482e-04]
entropy correction =  -0.030827957651976882
cycle= 3 E= -12.5060293007757  delta_E= -1.8  |g|= 0.591  |ddm|= 2.14
HOMO:  -0.2428232471640005 LUMO:  -0.23216309378517902
Fermi energy:      -0.2378452990
[2.0000e+00 2.0000e+00 2.0000e+00 2.0000e+00 2.0000e+00 1.9999e+00
 1.9803e+00 1.8630e+00 1.4604e+00 4.8595e-01 1.1936e-01 8.6438e-02
 3.2349e-03 1.3962e-03]
entropy correction =  -0.018652994547126205
cycle= 4 E= -11.8942791092273  delta_E= 0.612  |g|= 1.01  |ddm|= 2.25
HOMO:  -0.21191615088111407 LUMO:  -0.21051413604389332
Fermi energy:      -0.2124868978
[2.     2.     2.     2.     2.     2.     1.9001 1.2657 0.943  0.8052
 0.5582 0.2417 0.1765 0.0595 0.0455 0.0045]
entropy correction =  -0.03739142888440531
cycle= 5 E= -12.7101952367361  delta_E= -0.816  |g|= 0.22  |ddm|= 1.91
HOMO:  -0.2017351605923043 LUMO:  -0.1995638638207777
Fermi energy:      -0.2009759538
[2.0000e+00 2.0000e+00 2.0000e+00 2.0000e+00 2.0000e+00 2.0000e+00
 1.9275e+00 1.4227e+00 1.0758e+00 8.5972e-01 4.9629e-01 1.0149e-01
 6.2406e-02 4.2566e-02 1.1406e-02 1.4326e-04]
entropy correction =  -0.03169247738009943
cycle= 6 E= -12.5686440100343  delta_E= 0.142  |g|= 0.468  |ddm|=  1.5
HOMO:  -0.1902798049032294 LUMO:  -0.18741490677682268
Fermi energy:      -0.1899271791
[2.     2.     2.     2.     2.     2.     1.9077 1.1327 1.0352 0.7539
 0.5934 0.3239 0.1204 0.0762 0.0509 0.0056]
entropy correction =  -0.03804435703661634
cycle= 7 E= -12.7234971019645  delta_E= -0.155  |g|= 0.168  |ddm|= 0.89
HOMO:  -0.19010669517716347 LUMO:  -0.18626619674176986
Fermi energy:      -0.1894721321
[2.     2.     2.     2.     2.     2.     1.9096 1.1478 1.0634 0.69
 0.5862 0.3853 0.1148 0.0563 0.0398 0.0069]
entropy correction =  -0.037655060723381026
cycle= 8 E= -12.6942717508027  delta_E= 0.0292  |g|= 0.252  |ddm|= 0.643
HOMO:  -0.18931621503800863 LUMO:  -0.18651720826371096
Fermi energy:      -0.1890101763
[2.     2.     2.     2.     2.     2.     1.9023 1.0818 1.0306 0.7557
 0.6286 0.3429 0.1161 0.073  0.0617 0.0073]
entropy correction =  -0.03861322294182307
cycle= 9 E= -12.7377680060563  delta_E= -0.0435  |g|= 0.104  |ddm|= 0.417
HOMO:  -0.1879175437522486 LUMO:  -0.18417740627008386
Fermi energy:      -0.1873820805
[2.     2.     2.     2.     2.     2.     1.8991 1.0792 1.0535 0.6901
 0.6438 0.3707 0.1144 0.0743 0.0659 0.009 ]
entropy correction =  -0.03885272784185226
cycle= 10 E= -12.7442610973714  delta_E= -0.00649  |g|= 0.0562  |ddm|= 0.282
HOMO:  -0.18836398378678068 LUMO:  -0.18440066557825147
Fermi energy:      -0.1878237914
[2.     2.     2.     2.     2.     2.     1.8991 1.0894 1.054  0.6705
 0.6546 0.3707 0.1115 0.0734 0.0678 0.009 ]
entropy correction =  -0.038793267384668303
cycle= 11 E= -12.7455040214993  delta_E= -0.00124  |g|= 0.0409  |ddm|= 0.104
HOMO:  -0.18856706883503202 LUMO:  -0.184643049491527
Fermi energy:      -0.1880512324
[2.     2.     2.     2.     2.     2.     1.8992 1.0811 1.0515 0.6718
 0.6662 0.3691 0.1111 0.0721 0.069  0.0089]
entropy correction =  -0.03882659811380399
cycle= 12 E= -12.7463167832303  delta_E= -0.000813  |g|= 0.0259  |ddm|= 0.0903
HOMO:  -0.18862442685243236 LUMO:  -0.1847561017662766
Fermi energy:      -0.1881059478
[2.     2.     2.     2.     2.     2.     1.8991 1.0772 1.0518 0.677
 0.6655 0.3684 0.111  0.0728 0.0683 0.0089]
entropy correction =  -0.03883731745750882
cycle= 13 E= -12.7466258123271  delta_E= -0.000309  |g|= 0.017  |ddm|= 0.0316
HOMO:  -0.1884355497994978 LUMO:  -0.18454403799428884
Fermi energy:      -0.1879064435
[2.     2.     2.     2.     2.     2.     1.8992 1.0795 1.0529 0.6759
 0.6615 0.3701 0.1105 0.0726 0.069  0.009 ]
entropy correction =  -0.03883242520769564
cycle= 14 E= -12.7468205947076  delta_E= -0.000195  |g|= 0.00748  |ddm|= 0.0251
HOMO:  -0.18857602758751643 LUMO:  -0.18470096095443184
Fermi energy:      -0.1880709954
[2.     2.     2.     2.     2.     2.     1.8991 1.0792 1.0505 0.6752
 0.6672 0.3684 0.1104 0.0724 0.0688 0.0089]
entropy correction =  -0.038831205889631445
cycle= 15 E= -12.7468518435319  delta_E= -3.12e-05  |g|= 0.00398  |ddm|= 0.0165
HOMO:  -0.188624566202394 LUMO:  -0.1848060597217469
Fermi energy:      -0.1881153331
[2.     2.     2.     2.     2.     2.     1.899  1.0777 1.0509 0.6806
 0.6633 0.3678 0.1107 0.0725 0.0686 0.0089]
entropy correction =  -0.03883579114680881
cycle= 16 E= -12.7468616472083  delta_E= -9.8e-06  |g|= 0.00231  |ddm|= 0.0135
HOMO:  -0.18856098379187533 LUMO:  -0.18471849000444307
Fermi energy:      -0.1880488185
[2.     2.     2.     2.     2.     2.     1.899  1.0783 1.0512 0.6788
 0.6635 0.3684 0.1107 0.0725 0.0688 0.0089]
entropy correction =  -0.03883806051207229
cycle= 17 E= -12.7468660897046  delta_E= -4.44e-06  |g|= 0.00033  |ddm|= 0.00446
HOMO:  -0.18856686501988595 LUMO:  -0.18472222923380588
Fermi energy:      -0.1880550153
[2.     2.     2.     2.     2.     2.     1.899  1.0782 1.0511 0.6785
 0.6639 0.3684 0.1107 0.0725 0.0688 0.0089]
entropy correction =  -0.03883745215167411
cycle= 18 E= -12.7468661305713  delta_E= -4.09e-08  |g|= 0.000241  |ddm|= 0.000886
HOMO:  -0.1885626379293445 LUMO:  -0.18472001846372071
Fermi energy:      -0.1880505321
[2.     2.     2.     2.     2.     2.     1.899  1.0783 1.0512 0.6787
 0.6635 0.3684 0.1107 0.0725 0.0688 0.0089]
entropy correction =  -0.038837617416333896
cycle= 19 E= -12.7468661001354  delta_E= 3.04e-08  |g|= 0.000311  |ddm|= 0.00127
HOMO:  -0.1885692841874138 LUMO:  -0.18472601664257302
Fermi energy:      -0.1880570279
[2.     2.     2.     2.     2.     2.     1.899  1.0782 1.0512 0.6787
 0.6638 0.3683 0.1107 0.0725 0.0688 0.0089]
entropy correction =  -0.038837603414576136
cycle= 20 E= -12.7468661553014  delta_E= -5.52e-08  |g|= 0.000181  |ddm|= 0.000897
HOMO:  -0.1885664658963608 LUMO:  -0.18472337929471755
Fermi energy:      -0.1880544834
[2.     2.     2.     2.     2.     2.     1.899  1.0782 1.0512 0.6787
 0.6637 0.3684 0.1107 0.0725 0.0688 0.0089]
entropy correction =  -0.038837629243428456
cycle= 21 E= -12.7468661820245  delta_E= -2.67e-08  |g|= 4.82e-05  |ddm|= 0.000448
HOMO:  -0.18856584852032685 LUMO:  -0.1847231218829519
Fermi energy:      -0.1880542027
[2.     2.     2.     2.     2.     2.     1.899  1.0783 1.0511 0.6787
 0.6637 0.3684 0.1107 0.0725 0.0688 0.0089]
entropy correction =  -0.038837680639085194
cycle= 22 E= -12.746866171438  delta_E= 1.06e-08  |g|= 0.000121  |ddm|= 0.000346
HOMO:  -0.18856665778912618 LUMO:  -0.18472362532787126
Fermi energy:      -0.1880547887
[2.     2.     2.     2.     2.     2.     1.899  1.0782 1.0511 0.6787
 0.6637 0.3684 0.1107 0.0725 0.0688 0.0089]
entropy correction =  -0.03883765679937607
cycle= 23 E= -12.746866183242  delta_E= -1.18e-08  |g|= 2.76e-05  |ddm|= 0.000267
HOMO:  -0.1885661340658281 LUMO:  -0.1847228346130086
Fermi energy:      -0.1880542415
[2.     2.     2.     2.     2.     2.     1.899  1.0782 1.0511 0.6787
 0.6637 0.3684 0.1107 0.0725 0.0688 0.0089]
entropy correction =  -0.03883766488217739
cycle= 24 E= -12.7468661836641  delta_E= -4.22e-10  |g|= 1.57e-05  |ddm|= 7.06e-05
HOMO:  -0.18856621932516243 LUMO:  -0.18472365706367286
Fermi energy:      -0.1880543406
[2.     2.     2.     2.     2.     2.     1.899  1.0782 1.0511 0.6787
 0.6637 0.3684 0.1107 0.0725 0.0688 0.0089]
entropy correction =  -0.038837646124690914
Extra cycle  E= -12.7468661769504  delta_E= 6.71e-09  |g|= 9.04e-05  |ddm|= 0.000221
degenerate subspace detected:
nsub = 5
subspace 1:
5, 6, 7, 
subspace 2:
8, 9, 
subspace 3:
11, 12, 
subspace 4:
15, 16, 
subspace 5:
25, 26, 

 Adding contributions from fluctuation of occupation numbers.
degenerate subspace detected:
nsub = 8
subspace 1:
1, 2, 
subspace 2:
5, 6, 
subspace 3:
8, 9, 
subspace 4:
10, 11, 
subspace 5:
14, 15, 
subspace 6:
20, 21, 22, 
subspace 7:
27, 28, 
subspace 8:
38, 39, 

 Adding contributions from fluctuation of occupation numbers.
entropy correction =  -0.038837646124690914
2-norm (grad),       max(grad):
0.14005103646936196 ,  0.012788338514779785
time of hessian construction : 19.780  (cpu),  0.496  (wall) 
time of hessian construction : 20.940  (cpu),  0.525  (wall) 
f =  0.009807146408071277
[...]

At iterate    4    f=   9.782159001902E-03    |proj g|=  9.184129858E-03

At iterate    5    f=   9.774555360831E-03    |proj g|=  1.036466163E-02

At iterate    6    f=   9.766445720064E-03    |proj g|=  7.406936236E-03

At iterate    7    f=   9.761566396592E-03    |proj g|=  7.147745778E-03

At iterate    8    f=   9.757203155305E-03    |proj g|=  6.546198343E-03

At iterate    9    f=   9.751562386206E-03    |proj g|=  8.179659786E-03

At iterate   10    f=   9.743642421308E-03    |proj g|=  8.825386646E-03

At iterate   11    f=   9.736636160120E-03    |proj g|=  8.866714902E-03

At iterate   12    f=   9.730721060029E-03    |proj g|=  1.056351362E-02

At iterate   13    f=   9.726130845081E-03    |proj g|=  7.204531635E-03

At iterate   14    f=   9.722903051611E-03    |proj g|=  7.469312392E-03

At iterate   15    f=   9.717375212955E-03    |proj g|=  7.904763687E-03

At iterate   16    f=   9.713451121444E-03    |proj g|=  1.582261843E-02

At iterate   17    f=   9.708861863423E-03    |proj g|=  7.806892525E-03

At iterate   18    f=   9.703293563080E-03    |proj g|=  9.819967470E-03

At iterate   19    f=   9.700224534084E-03    |proj g|=  6.913839822E-03

At iterate   20    f=   9.692986259472E-03    |proj g|=  8.899184264E-03

At iterate   21    f=   9.688188201171E-03    |proj g|=  1.606183177E-02

At iterate   22    f=   9.681864497108E-03    |proj g|=  1.095578698E-02

At iterate   23    f=   9.676762506108E-03    |proj g|=  1.110077390E-02

At iterate   24    f=   9.671131912535E-03    |proj g|=  7.433698797E-03

At iterate   25    f=   9.665052191115E-03    |proj g|=  7.607615662E-03

At iterate   26    f=   9.657629217312E-03    |proj g|=  1.460933382E-02

At iterate   27    f=   9.651183214467E-03    |proj g|=  8.290561446E-03

At iterate   28    f=   9.645908965657E-03    |proj g|=  6.503855432E-03

At iterate   29    f=   9.640686441867E-03    |proj g|=  8.872568417E-03

At iterate   30    f=   9.636549272574E-03    |proj g|=  7.732677105E-03

At iterate   31    f=   9.632671907792E-03    |proj g|=  6.966181103E-03

At iterate   32    f=   9.627774985349E-03    |proj g|=  7.458269104E-03

At iterate   33    f=   9.623806191058E-03    |proj g|=  8.733068590E-03

At iterate   34    f=   9.619461139768E-03    |proj g|=  6.308649774E-03

At iterate   35    f=   9.614494723975E-03    |proj g|=  8.297666186E-03

At iterate   36    f=   9.609512999314E-03    |proj g|=  1.237875320E-02

At iterate   37    f=   9.602961962451E-03    |proj g|=  8.400435535E-03

At iterate   38    f=   9.596150379018E-03    |proj g|=  1.014370074E-02

At iterate   39    f=   9.589645086874E-03    |proj g|=  1.063607086E-02

At iterate   40    f=   9.584212220519E-03    |proj g|=  8.035232430E-03

At iterate   41    f=   9.576163338221E-03    |proj g|=  8.897401655E-03

At iterate   42    f=   9.570272063959E-03    |proj g|=  1.503793350E-02

At iterate   43    f=   9.563457177267E-03    |proj g|=  9.528849422E-03

At iterate   44    f=   9.555579576283E-03    |proj g|=  7.474652588E-03

At iterate   45    f=   9.549531671713E-03    |proj g|=  1.076345674E-02

At iterate   46    f=   9.540720926847E-03    |proj g|=  8.400873450E-03

At iterate   47    f=   9.532592546297E-03    |proj g|=  1.410718325E-02

At iterate   48    f=   9.526171123767E-03    |proj g|=  7.544968798E-03

At iterate   49    f=   9.521283882038E-03    |proj g|=  6.900285000E-03

At iterate   50    f=   9.513479177298E-03    |proj g|=  1.425935917E-02

           * * *

Tit   = total number of iterations
Tnf   = total number of function evaluations
Tnint = total number of segments explored during Cauchy searches
entropy correction =  -0.03876591853744603
2-norm (grad),       max(grad):
0.13793824108852312 ,  0.010189234912566743
time of hessian construction : 22.890  (cpu),  0.580  (wall) 
time of hessian construction : 20.950  (cpu),  0.525  (wall) 
f =  0.009513479177297765
========================================
 SCF with converged embedding potential 
========================================
rks_ao.ne_frozen =  0
Set gradient conv threshold to 3.16228e-05
tot grids = 190200
init E= -9.38880922554792
HOMO:  -0.19987443561038906 LUMO:  -0.19658273971145857
Fermi energy:      -0.1959216121
[2.     2.     1.9989 1.9983 1.7587 1.7383 1.5115 1.382  1.3759 1.066
 0.5257 0.5025 0.112  0.0303]
entropy correction =  -0.046875837060837026
cycle= 1 E= -12.6977091983795  delta_E= -3.31  |g|= 0.528  |ddm|= 4.83
HOMO:  -0.3697162651889014 LUMO:  -0.3466638736801424
Fermi energy:      -0.3587379383
[2.0000e+00 2.0000e+00 2.0000e+00 2.0000e+00 1.9983e+00 1.9927e+00
 1.9926e+00 1.8011e+00 1.7997e+00 1.6410e-01 1.5519e-01 7.9383e-02
 1.5281e-02 1.6316e-03]
entropy correction =  -0.014797502771257662
cycle= 2 E= -12.6178581533721  delta_E= 0.0799  |g|= 0.61  |ddm|= 2.31
HOMO:  -0.3050441107568003 LUMO:  -0.3034677293161484
Fermi energy:      -0.3054880719
[2.     2.     2.     2.     1.9075 1.8975 1.8811 0.9717 0.9556 0.8007
 0.7859 0.7593 0.0386 0.0021]
entropy correction =  -0.04110796412996879
cycle= 3 E= -12.8170323008339  delta_E= -0.199  |g|= 0.0578  |ddm|= 1.49
HOMO:  -0.3087976231406907 LUMO:  -0.3065497172081938
Fermi energy:      -0.3078002156
[2.     2.     2.     2.     1.8608 1.8301 1.7919 1.1988 1.0994 0.8756
 0.6588 0.637  0.0452 0.0025]
entropy correction =  -0.043013048052328265
cycle= 4 E= -12.794913319507  delta_E= 0.0221  |g|= 0.188  |ddm|= 0.503
HOMO:  -0.3083086252995243 LUMO:  -0.3055462103635852
Fermi energy:      -0.3071485967
[2.     2.     2.     2.     1.848  1.837  1.7989 1.1434 1.1155 0.8411
 0.6868 0.6812 0.0457 0.0024]
entropy correction =  -0.04330357513631413
cycle= 5 E= -12.8042759215354  delta_E= -0.00936  |g|= 0.152  |ddm|= 0.54
HOMO:  -0.3056061537451588 LUMO:  -0.3040990095420033
Fermi energy:      -0.3051987449
[2.     2.     2.     2.     1.8718 1.8414 1.8146 1.0984 1.0407 0.8905
 0.736  0.6613 0.0434 0.0021]
entropy correction =  -0.04297020493942519
cycle= 6 E= -12.8168033166281  delta_E= -0.0125  |g|= 0.0668  |ddm|= 0.336
HOMO:  -0.30543400742516735 LUMO:  -0.3034723468562783
Fermi energy:      -0.3049897548
[2.     2.     2.     2.     1.8538 1.8454 1.8416 1.0604 1.0444 0.8494
 0.7324 0.727  0.0435 0.002 ]
entropy correction =  -0.04300951672870296
cycle= 7 E= -12.8201678700925  delta_E= -0.00336  |g|= 0.0245  |ddm|= 0.179
HOMO:  -0.30544840798878814 LUMO:  -0.30376630836582447
Fermi energy:      -0.3051504751
[2.     2.     2.     2.     1.8534 1.8447 1.8427 1.0711 1.0298 0.8625
 0.7285 0.722  0.0434 0.002 ]
entropy correction =  -0.0430002934928113
cycle= 8 E= -12.820050522631  delta_E= 0.000117  |g|= 0.0231  |ddm|= 0.0911
HOMO:  -0.30600215775951056 LUMO:  -0.3040385271621374
Fermi energy:      -0.3055309147
[2.     2.     2.     2.     1.852  1.8431 1.841  1.0581 1.0471 0.8519
 0.7328 0.7285 0.0435 0.002 ]
entropy correction =  -0.04307714988595083
cycle= 9 E= -12.8205196278828  delta_E= -0.000469  |g|= 0.00722  |ddm|= 0.0592
HOMO:  -0.3059687501546219 LUMO:  -0.3040236131003435
Fermi energy:      -0.3055069042
[2.     2.     2.     2.     1.8522 1.8424 1.8408 1.0583 1.0462 0.8527
 0.733  0.7289 0.0435 0.002 ]
entropy correction =  -0.04309043042959901
cycle= 10 E= -12.8205484773868  delta_E= -2.88e-05  |g|= 0.00315  |ddm|= 0.0163
HOMO:  -0.3057705023238749 LUMO:  -0.30392494707660694
Fermi energy:      -0.3053868342
[2.     2.     2.     2.     1.8523 1.8427 1.8399 1.0611 1.0383 0.8548
 0.7342 0.731  0.0437 0.002 ]
entropy correction =  -0.04311313623478395
cycle= 11 E= -12.8205472719874  delta_E= 1.21e-06  |g|= 0.0027  |ddm|= 0.0127
HOMO:  -0.3058767442788891 LUMO:  -0.3039627854534329
Fermi energy:      -0.3054390170
[2.     2.     2.     2.     1.8521 1.842  1.8414 1.0584 1.0437 0.8534
 0.7338 0.7296 0.0436 0.002 ]
entropy correction =  -0.043096552547798796
cycle= 12 E= -12.8205554933541  delta_E= -8.22e-06  |g|= 0.000287  |ddm|= 0.00831
HOMO:  -0.30587569498919354 LUMO:  -0.3039637694981853
Fermi energy:      -0.3054407504
[2.     2.     2.     2.     1.8521 1.842  1.8414 1.0588 1.0435 0.8534
 0.7335 0.7298 0.0436 0.002 ]
entropy correction =  -0.043095306206355904
cycle= 13 E= -12.8205555215291  delta_E= -2.82e-08  |g|= 0.000245  |ddm|= 0.00139
HOMO:  -0.3058859810466932 LUMO:  -0.3039708587685296
Fermi energy:      -0.3054479127
[2.     2.     2.     2.     1.8521 1.842  1.8413 1.0588 1.0438 0.8534
 0.7334 0.7297 0.0436 0.002 ]
entropy correction =  -0.04309642941087957
cycle= 14 E= -12.8205555231076  delta_E= -1.58e-09  |g|= 0.000312  |ddm|= 0.000967
HOMO:  -0.3058878207990628 LUMO:  -0.3039710643469856
Fermi energy:      -0.3054492639
[2.     2.     2.     2.     1.8521 1.8419 1.8414 1.0588 1.0438 0.8532
 0.7334 0.7296 0.0436 0.002 ]
entropy correction =  -0.0430944383951118
cycle= 15 E= -12.8205555772939  delta_E= -5.42e-08  |g|= 0.000119  |ddm|= 0.000718
HOMO:  -0.30588489245889966 LUMO:  -0.303970066637332
Fermi energy:      -0.3054471025
[2.     2.     2.     2.     1.8521 1.842  1.8414 1.0588 1.0438 0.8534
 0.7335 0.7297 0.0436 0.002 ]
entropy correction =  -0.04309594184864268
cycle= 16 E= -12.8205555908688  delta_E= -1.36e-08  |g|= 6.56e-06  |ddm|= 0.000335
HOMO:  -0.30588551018862936 LUMO:  -0.303970595853252
Fermi energy:      -0.3054477876
[2.     2.     2.     2.     1.8521 1.842  1.8414 1.0588 1.0437 0.8533
 0.7335 0.7297 0.0436 0.002 ]
entropy correction =  -0.04309567231078718
cycle= 17 E= -12.8205555906776  delta_E= 1.91e-10  |g|= 1.71e-05  |ddm|= 4.8e-05
HOMO:  -0.30588560046301916 LUMO:  -0.30397059874836885
Fermi energy:      -0.3054475562
[2.     2.     2.     2.     1.8521 1.842  1.8413 1.0587 1.0438 0.8534
 0.7335 0.7297 0.0436 0.002 ]
entropy correction =  -0.04309607519334916
Extra cycle  E= -12.8205555742469  delta_E= 1.64e-08  |g|= 0.000157  |ddm|= 0.000334
entropy correction =  -0.04309607519334916
rks_ao.ne_frozen =  0
Set gradient conv threshold to 3.16228e-05
tot grids = 190200
init E= -9.62687079696648
HOMO:  -0.1412979145393261 LUMO:  -0.1379730617660635
Fermi energy:      -0.1408597357
[2.     2.     2.     2.     2.     2.     1.7377 1.0674 1.0438 0.7191
 0.7168 0.3447 0.2664 0.0514 0.0484 0.0044]
entropy correction =  -0.04178405054822286
cycle= 1 E= -12.72307527215  delta_E= -3.1  |g|= 0.266  |ddm|= 4.88
HOMO:  -0.18342394701183723 LUMO:  -0.1768379802362743
Fermi energy:      -0.1821745451
[2.     2.     2.     2.     2.     2.     1.9132 1.146  1.1243 0.5118
 0.5065 0.4885 0.1296 0.0849 0.081  0.0142]
entropy correction =  -0.038644064104737495
cycle= 2 E= -12.7311257823586  delta_E= -0.00805  |g|= 0.161  |ddm|= 0.691
HOMO:  -0.19499416403774458 LUMO:  -0.19186340490808762
Fermi energy:      -0.1947329609
[2.     2.     2.     2.     2.     2.     1.8987 1.0481 1.0261 0.7207
 0.7178 0.3348 0.1191 0.0658 0.0624 0.0065]
entropy correction =  -0.03874712319159315
cycle= 3 E= -12.7423882811205  delta_E= -0.0113  |g|= 0.0438  |ddm|= 0.34
HOMO:  -0.19187351306785294 LUMO:  -0.18824799694675703
Fermi energy:      -0.1913251507
[2.     2.     2.     2.     2.     2.     1.8994 1.0892 1.0548 0.7016
 0.6485 0.3694 0.1136 0.0613 0.0555 0.0066]
entropy correction =  -0.03840906261162705
cycle= 4 E= -12.724307562627  delta_E= 0.0181  |g|= 0.153  |ddm|= 0.307
HOMO:  -0.1888242326464831 LUMO:  -0.18493286643821855
Fermi energy:      -0.1882258263
[2.     2.     2.     2.     2.     2.     1.8949 1.0841 1.0598 0.6821
 0.6529 0.3669 0.1146 0.0708 0.0667 0.0071]
entropy correction =  -0.03879406821435071
cycle= 5 E= -12.7437721095146  delta_E= -0.0195  |g|= 0.0108  |ddm|= 0.247
HOMO:  -0.1889143155978052 LUMO:  -0.1849021520494734
Fermi energy:      -0.1883088334
[2.     2.     2.     2.     2.     2.     1.8952 1.0811 1.0605 0.6719
 0.6669 0.3668 0.1136 0.0701 0.0668 0.0071]
entropy correction =  -0.03878067234096571
cycle= 6 E= -12.7437785442818  delta_E= -6.43e-06  |g|= 0.0106  |ddm|= 0.0469
HOMO:  -0.18899013325652378 LUMO:  -0.18504081041855322
Fermi energy:      -0.1884072181
[2.     2.     2.     2.     2.     2.     1.8954 1.0805 1.0582 0.6755
 0.6675 0.3665 0.1129 0.0696 0.0667 0.0071]
entropy correction =  -0.03877199585475976
cycle= 7 E= -12.7437927862076  delta_E= -1.42e-05  |g|= 0.00974  |ddm|= 0.0276
HOMO:  -0.18900989882294517 LUMO:  -0.18510564590648476
Fermi energy:      -0.1884362675
[2.     2.     2.     2.     2.     2.     1.8954 1.0807 1.0573 0.6787
 0.6657 0.3662 0.1127 0.0697 0.0666 0.0071]
entropy correction =  -0.03876964385273222
cycle= 8 E= -12.7438675386108  delta_E= -7.48e-05  |g|= 0.00242  |ddm|= 0.0198
HOMO:  -0.18901207404748477 LUMO:  -0.18512301565012879
Fermi energy:      -0.1884348600
[2.     2.     2.     2.     2.     2.     1.8952 1.0804 1.0577 0.6804
 0.6648 0.3657 0.1126 0.0697 0.0665 0.0071]
entropy correction =  -0.03876789832721154
cycle= 9 E= -12.7438672284137  delta_E= 3.1e-07  |g|= 0.00258  |ddm|= 0.0089
HOMO:  -0.18900862380167108 LUMO:  -0.18510941776485756
Fermi energy:      -0.1884283003
[2.     2.     2.     2.     2.     2.     1.8951 1.0802 1.058  0.6798
 0.6657 0.3654 0.1125 0.0697 0.0665 0.0071]
entropy correction =  -0.038767307429632955
cycle= 10 E= -12.7438724193532  delta_E= -5.19e-06  |g|= 0.000329  |ddm|= 0.00604
HOMO:  -0.18900058998656738 LUMO:  -0.1850959336143936
Fermi energy:      -0.1884211955
[2.     2.     2.     2.     2.     2.     1.8951 1.0805 1.0579 0.6792
 0.6661 0.3655 0.1125 0.0697 0.0666 0.0071]
entropy correction =  -0.038766750271011466
cycle= 11 E= -12.743872527243  delta_E= -1.08e-07  |g|= 7.7e-05  |ddm|= 0.00106
HOMO:  -0.18900135815511296 LUMO:  -0.18509550644401465
Fermi energy:      -0.1884210256
[2.     2.     2.     2.     2.     2.     1.8952 1.0805 1.058  0.6792
 0.666  0.3655 0.1124 0.0697 0.0665 0.0071]
entropy correction =  -0.0387655621820631
cycle= 12 E= -12.7438725301038  delta_E= -2.86e-09  |g|= 4.97e-05  |ddm|= 0.00024
HOMO:  -0.18900138990100718 LUMO:  -0.18509582122957488
Fermi energy:      -0.1884211266
[2.     2.     2.     2.     2.     2.     1.8952 1.0805 1.058  0.6792
 0.666  0.3655 0.1124 0.0697 0.0665 0.0071]
entropy correction =  -0.038765477776271776
cycle= 13 E= -12.7438725308367  delta_E= -7.33e-10  |g|= 4.02e-05  |ddm|= 0.000197
HOMO:  -0.18900111798583827 LUMO:  -0.1850953027271782
Fermi energy:      -0.1884207750
[2.     2.     2.     2.     2.     2.     1.8952 1.0805 1.058  0.6792
 0.666  0.3655 0.1124 0.0697 0.0665 0.0071]
entropy correction =  -0.038765372307399265
cycle= 14 E= -12.7438725301087  delta_E= 7.28e-10  |g|= 5.01e-05  |ddm|= 0.000121
HOMO:  -0.18900196951536108 LUMO:  -0.18509628638274922
Fermi energy:      -0.1884216717
[2.     2.     2.     2.     2.     2.     1.8952 1.0805 1.058  0.6792
 0.666  0.3655 0.1124 0.0697 0.0665 0.0071]
entropy correction =  -0.038765283619601264
cycle= 15 E= -12.7438725321646  delta_E= -2.06e-09  |g|= 7.59e-06  |ddm|= 8.66e-05
HOMO:  -0.18900154893411475 LUMO:  -0.1850958399142448
Fermi energy:      -0.1884212214
[2.     2.     2.     2.     2.     2.     1.8952 1.0805 1.058  0.6792
 0.666  0.3655 0.1124 0.0697 0.0665 0.0071]
entropy correction =  -0.038765286691933624
cycle= 16 E= -12.7438725321236  delta_E= 4.1e-11  |g|= 9.99e-06  |ddm|= 3.03e-05
HOMO:  -0.18900162177180457 LUMO:  -0.18509570006246184
Fermi energy:      -0.1884212311
[2.     2.     2.     2.     2.     2.     1.8952 1.0805 1.058  0.6792
 0.666  0.3655 0.1124 0.0697 0.0665 0.0071]
entropy correction =  -0.03876527703736621
Extra cycle  E= -12.743872524422  delta_E= 7.7e-09  |g|= 9.67e-05  |ddm|= 0.00018
entropy correction =  -0.03876527703736621
scf energies:
EA (no vemb contrib.) =  -34.81135660231824
EB (no vemb contrib.) =  -25.12623976432516
W =  -59.75026305401975
P_imp change (scf - non-scf):  0.02674926725264538
P_bath change (scf - non-scf):  0.027614352912269245
|P_frag + P_env - P_ref| =  0.19214964296854176
max element of (P_frag + P_env - P_ref) =  0.010188684118260544
mo orthogonality:
[[-2.1969e-05  1.4651e-05 -6.3277e-06  2.2457e-02 -1.6952e-05 -1.2449e-05
   1.9305e-05 -2.0716e-05  6.0846e-05 -1.4890e-04 -5.7632e-04 -2.7155e-04
   3.2837e-01  1.0611e-04 -1.9692e-03  5.3765e-01  5.3928e-04  2.4847e-04
  -1.5613e-05]
 [-5.0968e-05 -3.3937e-05 -1.2398e-02 -6.6054e-05 -1.8300e-05  1.0035e-05
  -6.9470e-06  1.5132e-04  2.4028e-04 -1.1764e-04 -1.6256e-04  2.7061e-01
   7.1810e-05 -2.7104e-04  1.5994e-04  1.5227e-04  5.0876e-03 -3.9377e-03
  -2.5693e-03]
 [-2.1497e-03 -4.7384e-03 -8.9593e-05 -8.6582e-06  8.1595e-05 -4.7856e-05
  -1.4431e-04 -7.6961e-03 -1.5228e-02  5.6338e-04  2.2848e-04  6.0147e-04
   3.4516e-04 -1.2431e-04  9.3249e-05  4.9009e-04 -9.2490e-01  3.5582e-02
  -1.3355e-03]
 [ 4.7559e-03 -2.2283e-03  9.2591e-05  5.3949e-05  4.9911e-05  3.5864e-05
   1.0024e-04 -1.7666e-02  6.4964e-03 -3.7905e-04 -1.3150e-04 -9.4491e-04
   1.4515e-03 -1.1435e-04 -1.1915e-03 -1.0729e-04 -3.5733e-02 -9.2625e-01
   6.7982e-04]
 [ 6.3753e-06  6.7340e-05 -4.4485e-06  2.6936e-04  2.0448e-02 -1.5364e-02
   3.4181e-04 -3.0497e-06  5.2595e-04  6.2461e-02 -3.7180e-02  5.4973e-05
  -7.6410e-03  8.6668e-01  1.7013e-01  2.1572e-03 -1.8272e-04  5.4380e-04
   1.5758e-04]
 [ 4.2098e-06  8.5966e-05 -5.6750e-05  3.5597e-04 -1.4696e-02 -1.8641e-02
  -3.6314e-04  1.1864e-04  2.1025e-04  3.6599e-02  5.4930e-02  8.2131e-06
  -3.0834e-01 -1.5978e-01  8.0084e-01  1.3093e-01 -1.6264e-04 -1.1580e-03
  -1.5818e-04]
 [ 5.0160e-05  6.5845e-05  3.8670e-05  1.2318e-04 -5.8792e-03 -7.9999e-03
  -1.0507e-04  1.6942e-04  7.1529e-05  1.7560e-02  2.0782e-02 -8.1162e-05
   7.5413e-01 -5.7214e-02  3.2965e-01 -3.1536e-01  2.6903e-04  1.1628e-03
  -4.7173e-05]
 [-2.2726e-05  1.5292e-05 -1.2939e-05  1.1698e-03  7.0986e-02 -2.1400e-01
  -2.7575e-04  1.7438e-03 -2.0449e-03 -9.4034e-01 -2.0190e-02  1.0233e-03
   1.6990e-03  5.7024e-02  5.7554e-02 -4.6345e-04 -9.0078e-04  3.1611e-04
  -5.3780e-04]
 [-2.6567e-04  2.3220e-04 -7.4290e-05 -2.2912e-04 -2.0881e-01 -6.8904e-02
   8.3250e-04  8.3785e-07  7.6497e-04  2.0124e-02 -9.4209e-01 -1.0047e-03
  -1.4132e-03 -5.3397e-02  5.3915e-02 -1.0098e-04 -3.5969e-04 -2.6217e-04
  -1.2779e-03]
 [ 1.0831e-04  2.9517e-04  6.7214e-02 -1.8620e-04 -2.6461e-04  2.0660e-04
   2.8917e-05 -3.1143e-03 -3.2584e-03  1.1300e-03 -9.6303e-04  9.0308e-01
   1.9247e-04 -6.8935e-05 -3.1913e-06  2.4741e-04 -7.1275e-04  3.0253e-04
   8.6520e-04]
 [ 1.6720e-02 -2.1067e-02  4.5716e-04  2.9237e-04 -6.9935e-05  4.0818e-04
  -1.0254e-04  9.5368e-01  2.7374e-02  1.4617e-03 -2.5028e-05  2.7252e-03
  -6.3496e-05 -6.2387e-06 -2.0071e-04  2.4922e-04 -1.6449e-02 -3.5025e-02
   1.7973e-05]
 [-2.6319e-02 -2.2297e-02  1.5398e-04  1.3224e-04  9.8728e-05 -5.3977e-04
  -2.4509e-05 -2.7587e-02  9.5394e-01 -2.2161e-03  6.9490e-04  2.9911e-03
  -6.4453e-05 -2.9213e-04 -2.0691e-04 -3.9168e-05 -2.6442e-02  1.5621e-02
  -4.3948e-04]
 [-6.3959e-05 -6.0992e-04  3.4095e-04 -8.6671e-01  2.7889e-03 -4.2728e-03
  -5.9506e-05  3.5730e-04  9.9058e-05 -4.5588e-05  1.6815e-04 -1.7031e-04
  -1.3251e-01 -7.6916e-05  9.4449e-04 -2.0973e-01 -9.0002e-06 -2.2337e-04
  -3.0865e-05]
 [-6.8560e-03  4.5766e-03 -1.9731e-04  1.8043e-04 -1.5507e-03 -1.8780e-03
  -9.5743e-01  3.8156e-04 -1.6886e-04  5.9495e-04 -3.8346e-04  3.4714e-05
  -1.5605e-05  3.0951e-04 -4.0841e-04 -3.2196e-05  4.4349e-05 -2.6099e-04
   1.7488e-04]]
|P_imp-P_imp_0| =  0.02674926725264538
max(P_imp-P_imp_0) =  0.0017378109359742332
|P_bath-P_bath_0| =  0.027614352912269245
max(P_bath-P_bath_0) =  0.003289195865002363
Skip  = number of BFGS updates skipped
Nact  = number of active bounds at final generalized Cauchy point
Projg = norm of the final projected gradient
F     = final function value

           * * *

   N    Tit     Tnf  Tnint  Skip  Nact     Projg        F
 4656     50     53      1     0     0   1.426D-02   9.513D-03
  F =   9.5134791772977650E-003

STOP: TOTAL NO. of ITERATIONS REACHED LIMIT                 

 Cauchy                time 0.000E+00 seconds.
 Subspace minimization time 0.000E+00 seconds.
 Line search           time 0.000E+00 seconds.

 Total User time 0.000E+00 seconds.

