#INFO: **** input file is /tigress/xingz/pydmfet/examples/research/Al12/dmfet/Al12.py ****
from pydmfet import locints, sdmfet, oep, tools, dfet_ao, proj_ao
from pydmfet.dfet_ao import dfet
from pydmfet.qcwrap.pyscf_rks_ao import rks_ao
from pyscf import gto, scf,dft, ao2mo,cc
import numpy as np
from pyscf.tools import molden, cubegen
import copy,time
from pydmfet.tools.sym import h_lattice_sym_tab

bas = 'stuttgartdz'
ecp = 'stuttgartdz'
temp = 0.005


mol = gto.Mole()
mol.atom = open('Al12.xyz').read()
mol.basis = bas
mol.ecp = ecp
mol.build(max_memory = 4000, verbose=4)

mf = rks_ao(mol,smear_sigma = temp)
mf.xc = 'pbe,pbe'
mf.max_cycle = 50
mf.scf(dm0=None)

natoms = mol.natm
impAtom = np.zeros([natoms], dtype=int)
for i in range(6):
    impAtom[i] = 1

ghost_frag = 1-impAtom
ghost_env = 1-ghost_frag

mol_frag = gto.Mole()
mol_frag.atom = tools.add_ghost(mol.atom, ghost_frag)
mol_frag.basis = bas
mol_frag.ecp = ecp
mol_frag.build(max_memory = 4000,verbose = 4)

mol_env = gto.Mole()
mol_env.atom = tools.add_ghost(mol.atom, ghost_env)
mol_env.basis =  bas
mol_env.ecp = ecp
mol_env.build(max_memory = 4000,verbose = 4)

Ne_frag = 18
Ne_env = 18

boundary_atoms = None
boundary_atoms2 =None

umat = None
#umat = np.load("umat.npy")

params = oep.OEPparams(algorithm = 'leastsq', opt_method = 'L-BFGS-B', diffP_tol=1e-4, outer_maxit = 10)
params.options['ftol'] = 1e-9
params.options['gtol'] = 1e-3
params.options['maxiter'] = 10
params.options['svd_thresh'] = 1e-4

theDMFET = dfet.DFET(mf, mol_frag, mol_env,Ne_frag,Ne_env,\
                     boundary_atoms=boundary_atoms, boundary_atoms2=boundary_atoms2,umat = umat,\
                     oep_params=params, smear_sigma=temp, ecw_method = 'hf',mf_method = mf.xc, plot_dens=True)

umat = theDMFET.embedding_potential()
#INFO: ******************** input file end ********************


System: uname_result(system='Linux', node='tigercpu.princeton.edu', release='3.10.0-957.27.2.el7.x86_64', version='#1 SMP Tue Jul 30 11:12:20 EDT 2019', machine='x86_64', processor='x86_64')  Threads 40
Python 3.7.0 (default, Jun 28 2018, 13:15:42) 
[GCC 7.2.0]
numpy 1.16.4  scipy 1.4.0.dev0+0f78e0f
Date: Thu Aug 15 18:49:18 2019
PySCF version 1.5
PySCF path  /home/xingz/.local/lib/python3.7/site-packages/pyscf

[CONFIG] conf_file None
[INPUT] verbose = 4
[INPUT] num. atoms = 12
[INPUT] num. electrons = 36
[INPUT] charge = 0
[INPUT] spin (= nelec alpha-beta = 2S) = 0
[INPUT] symmetry False subgroup None
[INPUT] Mole.unit = angstrom
[INPUT]  1 Al     8.092960000000   4.046480000000  -0.000000000000 AA   15.293477937060   7.646738968530  -0.000000000000 Bohr
[INPUT]  2 Al     8.092960000000   6.069720000000  -2.023240000000 AA   15.293477937060  11.470108452795  -3.823369484265 Bohr
[INPUT]  3 Al    10.116200000000   4.046480000000  -2.023240000000 AA   19.116847421325   7.646738968530  -3.823369484265 Bohr
[INPUT]  4 Al     6.069720000000   4.046480000000  -2.023240000000 AA   11.470108452795   7.646738968530  -3.823369484265 Bohr
[INPUT]  5 Al     8.092960000000   2.023240000000  -2.023240000000 AA   15.293477937060   3.823369484265  -3.823369484265 Bohr
[INPUT]  6 Al     8.092960000000   4.046480000000  -4.046480000000 AA   15.293477937060   7.646738968530  -7.646738968530 Bohr
[INPUT]  7 Al     6.069720000000   6.069720000000  -0.000000000000 AA   11.470108452795  11.470108452795  -0.000000000000 Bohr
[INPUT]  8 Al    10.116200000000   2.023240000000  -0.000000000000 AA   19.116847421325   3.823369484265  -0.000000000000 Bohr
[INPUT]  9 Al    10.116200000000   6.069720000000  -4.046480000000 AA   19.116847421325  11.470108452795  -7.646738968530 Bohr
[INPUT] 10 Al     6.069720000000   2.023240000000  -0.000000000000 AA   11.470108452795   3.823369484265  -0.000000000000 Bohr
[INPUT] 11 Al     6.069720000000   6.069720000000  -4.046480000000 AA   11.470108452795  11.470108452795  -7.646738968530 Bohr
[INPUT] 12 Al    10.116200000000   2.023240000000  -4.046480000000 AA   19.116847421325   3.823369484265  -7.646738968530 Bohr

nuclear repulsion = 84.8573926838199
number of shells = 48
number of NR pGTOs = 192
number of NR cGTOs = 96
basis = stuttgartdz
ecp = stuttgartdz
CPU time:         4.58
rks_ao.ne_frozen =  0


******** <class 'pydmfet.qcwrap.pyscf_rks_ao.rks_ao'> flags ********
method = rks_ao-RKS-RHF
initial guess = minao
damping factor = 0
level shift factor = 0
DIIS = <class 'pyscf.scf.diis.CDIIS'>
DIIS start cycle = 1
DIIS space = 8
SCF tol = 1e-09
SCF gradient tol = None
max. SCF cycles = 50
direct_scf = False
chkfile to save SCF result = /tigress/xingz/pydmfet/examples/research/Al12/dmfet/tmpo3chbgsh
max_memory 4000 MB (current use 68 MB)
XC functionals = pbe,pbe
small_rho_cutoff = 1e-07
radial grids: 
    Treutler-Ahlrichs (JCP 102, 346 (M4)) radial grids
    
becke partition: Becke, JCP, 88, 2547 (1988)
pruning grids: <function nwchem_prune at 0x2ba9e7ebb400>
grids dens level: 3
symmetrized grids: False
atomic radii adjust function: <function treutler_atomic_radii_adjust at 0x2ba9e7ebb378>
Set gradient conv threshold to 3.16228e-05
tot grids = 220800
init E= -21.344783658299
HOMO:  -0.09640875247665436 LUMO:  -0.08910626015728004
Fermi energy:      -0.0887572500
[2.     2.     2.     2.     2.     2.     2.     2.     2.     2.
 2.     2.     1.9995 1.9096 1.7557 1.7557 1.6441 1.6441 1.0349 0.2163
 0.02   0.02  ]
entropy correction =  -0.030126402950195898
cycle= 1 E= -24.0317931641734  delta_E= -2.69  |g|= 0.653  |ddm|= 6.67
HOMO:  -0.23116268121406675 LUMO:  -0.23116268121406622
Fermi energy:      -0.2358858179
[2.     2.     2.     2.     2.     2.     2.     2.     2.     2.
 2.     2.     2.     1.9989 1.9981 1.9981 1.9963 0.5599 0.5599 0.4393
 0.4393 0.0101]
entropy correction =  -0.023039335110061458
cycle= 2 E= -22.758941240657  delta_E= 1.27  |g|= 1.61  |ddm|= 4.31
HOMO:  -0.1864794289436337 LUMO:  -0.1755152171500901
Fermi energy:      -0.1766937420
[2.     2.     2.     2.     2.     2.     2.     2.     2.     2.
 2.     2.     1.9995 1.9702 1.7766 1.7766 1.7524 1.7524 0.8827 0.0807
 0.0044 0.0044]
entropy correction =  -0.024152979426380804
cycle= 3 E= -24.1577819172458  delta_E= -1.4  |g|= 0.177  |ddm|= 3.48
HOMO:  -0.16723309364643327 LUMO:  -0.16668219584287083
Fermi energy:      -0.1626445453
[2.     2.     2.     2.     2.     2.     2.     2.     2.     2.
 2.     2.     1.9999 1.922  1.8341 1.8341 1.4292 1.4292 1.3832 0.1196
 0.0244 0.0244]
entropy correction =  -0.02909239307905728
cycle= 4 E= -24.1758252844605  delta_E= -0.018  |g|= 0.0887  |ddm|= 0.83
HOMO:  -0.16913270192186344 LUMO:  -0.1647659994642608
Fermi energy:      -0.1627185946
[2.     2.     2.     2.     2.     2.     2.     2.     2.     2.
 2.     2.     1.9998 1.9364 1.7964 1.7964 1.5659 1.5659 1.2019 0.1144
 0.0115 0.0115]
entropy correction =  -0.028086981458188262
cycle= 5 E= -24.1831548067301  delta_E= -0.00733  |g|= 0.00917  |ddm|= 0.293
HOMO:  -0.17049749264549827 LUMO:  -0.16611814497689248
Fermi energy:      -0.1641279001
[2.     2.     2.     2.     2.     2.     2.     2.     2.     2.
 2.     2.     1.9999 1.9389 1.802  1.802  1.5628 1.5628 1.1964 0.1103
 0.0124 0.0124]
entropy correction =  -0.02795963615164703
cycle= 6 E= -24.1832343125343  delta_E= -7.95e-05  |g|= 0.00113  |ddm|= 0.0422
HOMO:  -0.17058528293729835 LUMO:  -0.16630331880958224
Fermi energy:      -0.1642599608
[2.     2.     2.     2.     2.     2.     2.     2.     2.     2.
 2.     2.     1.9999 1.9387 1.8025 1.8025 1.5598 1.5598 1.2015 0.1105
 0.0124 0.0124]
entropy correction =  -0.0279832429523489
cycle= 7 E= -24.183235547326  delta_E= -1.23e-06  |g|= 0.000895  |ddm|= 0.00747
HOMO:  -0.17054731833023848 LUMO:  -0.1662169081549164
Fermi energy:      -0.1641961314
[2.     2.     2.     2.     2.     2.     2.     2.     2.     2.
 2.     2.     1.9999 1.9385 1.8018 1.8018 1.5616 1.5616 1.1994 0.1109
 0.0124 0.0124]
entropy correction =  -0.027989021488971862
cycle= 8 E= -24.1832361966831  delta_E= -6.49e-07  |g|= 7.71e-05  |ddm|= 0.00356
HOMO:  -0.17053508515538277 LUMO:  -0.16621147282032306
Fermi energy:      -0.1641878969
[2.     2.     2.     2.     2.     2.     2.     2.     2.     2.
 2.     2.     1.9999 1.9385 1.8019 1.8019 1.5613 1.5613 1.1996 0.1108
 0.0124 0.0124]
entropy correction =  -0.027988389387861946
cycle= 9 E= -24.183236206152  delta_E= -9.47e-09  |g|= 2.11e-05  |ddm|= 0.000544
HOMO:  -0.17053203701382916 LUMO:  -0.16620777273044998
Fermi energy:      -0.1641845192
[2.     2.     2.     2.     2.     2.     2.     2.     2.     2.
 2.     2.     1.9999 1.9385 1.8019 1.8019 1.5613 1.5613 1.1996 0.1108
 0.0124 0.0124]
entropy correction =  -0.027988113609437593
cycle= 10 E= -24.1832362064485  delta_E= -2.97e-10  |g|= 3.03e-06  |ddm|= 6.6e-05
HOMO:  -0.17053311710216792 LUMO:  -0.1662088500124996
Fermi energy:      -0.1641855888
[2.     2.     2.     2.     2.     2.     2.     2.     2.     2.
 2.     2.     1.9999 1.9385 1.8019 1.8019 1.5613 1.5613 1.1996 0.1108
 0.0124 0.0124]
entropy correction =  -0.02798812373700012
Extra cycle  E= -24.1832362064462  delta_E= 2.3e-12  |g|= 3.71e-06  |ddm|= 1.75e-05
converged SCF energy = -24.1832362064462
#INFO: **** input file is /tigress/xingz/pydmfet/examples/research/Al12/dmfet/Al12.py ****
from pydmfet import locints, sdmfet, oep, tools, dfet_ao, proj_ao
from pydmfet.dfet_ao import dfet
from pydmfet.qcwrap.pyscf_rks_ao import rks_ao
from pyscf import gto, scf,dft, ao2mo,cc
import numpy as np
from pyscf.tools import molden, cubegen
import copy,time
from pydmfet.tools.sym import h_lattice_sym_tab

bas = 'stuttgartdz'
ecp = 'stuttgartdz'
temp = 0.005


mol = gto.Mole()
mol.atom = open('Al12.xyz').read()
mol.basis = bas
mol.ecp = ecp
mol.build(max_memory = 4000, verbose=4)

mf = rks_ao(mol,smear_sigma = temp)
mf.xc = 'pbe,pbe'
mf.max_cycle = 50
mf.scf(dm0=None)

natoms = mol.natm
impAtom = np.zeros([natoms], dtype=int)
for i in range(6):
    impAtom[i] = 1

ghost_frag = 1-impAtom
ghost_env = 1-ghost_frag

mol_frag = gto.Mole()
mol_frag.atom = tools.add_ghost(mol.atom, ghost_frag)
mol_frag.basis = bas
mol_frag.ecp = ecp
mol_frag.build(max_memory = 4000,verbose = 4)

mol_env = gto.Mole()
mol_env.atom = tools.add_ghost(mol.atom, ghost_env)
mol_env.basis =  bas
mol_env.ecp = ecp
mol_env.build(max_memory = 4000,verbose = 4)

Ne_frag = 18
Ne_env = 18

boundary_atoms = None
boundary_atoms2 =None

umat = None
#umat = np.load("umat.npy")

params = oep.OEPparams(algorithm = 'leastsq', opt_method = 'L-BFGS-B', diffP_tol=1e-4, outer_maxit = 10)
params.options['ftol'] = 1e-9
params.options['gtol'] = 1e-3
params.options['maxiter'] = 10
params.options['svd_thresh'] = 1e-4

theDMFET = dfet.DFET(mf, mol_frag, mol_env,Ne_frag,Ne_env,\
                     boundary_atoms=boundary_atoms, boundary_atoms2=boundary_atoms2,umat = umat,\
                     oep_params=params, smear_sigma=temp, ecw_method = 'hf',mf_method = mf.xc, plot_dens=True)

umat = theDMFET.embedding_potential()
#INFO: ******************** input file end ********************


System: uname_result(system='Linux', node='tigercpu.princeton.edu', release='3.10.0-957.27.2.el7.x86_64', version='#1 SMP Tue Jul 30 11:12:20 EDT 2019', machine='x86_64', processor='x86_64')  Threads 40
Python 3.7.0 (default, Jun 28 2018, 13:15:42) 
[GCC 7.2.0]
numpy 1.16.4  scipy 1.4.0.dev0+0f78e0f
Date: Thu Aug 15 18:49:31 2019
PySCF version 1.5
PySCF path  /home/xingz/.local/lib/python3.7/site-packages/pyscf

[CONFIG] conf_file None
[INPUT] verbose = 4
[INPUT] num. atoms = 12
[INPUT] num. electrons = 18
[INPUT] charge = 0
[INPUT] spin (= nelec alpha-beta = 2S) = 0
[INPUT] symmetry False subgroup None
[INPUT] Mole.unit = angstrom
[INPUT]  1 Al     8.092960000000   4.046480000000  -0.000000000000 AA   15.293477937060   7.646738968530  -0.000000000000 Bohr
[INPUT]  2 Al     8.092960000000   6.069720000000  -2.023240000000 AA   15.293477937060  11.470108452795  -3.823369484265 Bohr
[INPUT]  3 Al    10.116200000000   4.046480000000  -2.023240000000 AA   19.116847421325   7.646738968530  -3.823369484265 Bohr
[INPUT]  4 Al     6.069720000000   4.046480000000  -2.023240000000 AA   11.470108452795   7.646738968530  -3.823369484265 Bohr
[INPUT]  5 Al     8.092960000000   2.023240000000  -2.023240000000 AA   15.293477937060   3.823369484265  -3.823369484265 Bohr
[INPUT]  6 Al     8.092960000000   4.046480000000  -4.046480000000 AA   15.293477937060   7.646738968530  -7.646738968530 Bohr
[INPUT]  7 GHOST-Al   6.069720000000   6.069720000000  -0.000000000000 AA   11.470108452795  11.470108452795  -0.000000000000 Bohr
[INPUT]  8 GHOST-Al  10.116200000000   2.023240000000  -0.000000000000 AA   19.116847421325   3.823369484265  -0.000000000000 Bohr
[INPUT]  9 GHOST-Al  10.116200000000   6.069720000000  -4.046480000000 AA   19.116847421325  11.470108452795  -7.646738968530 Bohr
[INPUT] 10 GHOST-Al   6.069720000000   2.023240000000  -0.000000000000 AA   11.470108452795   3.823369484265  -0.000000000000 Bohr
[INPUT] 11 GHOST-Al   6.069720000000   6.069720000000  -4.046480000000 AA   11.470108452795  11.470108452795  -7.646738968530 Bohr
[INPUT] 12 GHOST-Al  10.116200000000   2.023240000000  -4.046480000000 AA   19.116847421325   3.823369484265  -7.646738968530 Bohr

nuclear repulsion = 23.5047992975816
number of shells = 48
number of NR pGTOs = 192
number of NR cGTOs = 96
basis = stuttgartdz
ecp = stuttgartdz
CPU time:       321.67
#INFO: **** input file is /tigress/xingz/pydmfet/examples/research/Al12/dmfet/Al12.py ****
from pydmfet import locints, sdmfet, oep, tools, dfet_ao, proj_ao
from pydmfet.dfet_ao import dfet
from pydmfet.qcwrap.pyscf_rks_ao import rks_ao
from pyscf import gto, scf,dft, ao2mo,cc
import numpy as np
from pyscf.tools import molden, cubegen
import copy,time
from pydmfet.tools.sym import h_lattice_sym_tab

bas = 'stuttgartdz'
ecp = 'stuttgartdz'
temp = 0.005


mol = gto.Mole()
mol.atom = open('Al12.xyz').read()
mol.basis = bas
mol.ecp = ecp
mol.build(max_memory = 4000, verbose=4)

mf = rks_ao(mol,smear_sigma = temp)
mf.xc = 'pbe,pbe'
mf.max_cycle = 50
mf.scf(dm0=None)

natoms = mol.natm
impAtom = np.zeros([natoms], dtype=int)
for i in range(6):
    impAtom[i] = 1

ghost_frag = 1-impAtom
ghost_env = 1-ghost_frag

mol_frag = gto.Mole()
mol_frag.atom = tools.add_ghost(mol.atom, ghost_frag)
mol_frag.basis = bas
mol_frag.ecp = ecp
mol_frag.build(max_memory = 4000,verbose = 4)

mol_env = gto.Mole()
mol_env.atom = tools.add_ghost(mol.atom, ghost_env)
mol_env.basis =  bas
mol_env.ecp = ecp
mol_env.build(max_memory = 4000,verbose = 4)

Ne_frag = 18
Ne_env = 18

boundary_atoms = None
boundary_atoms2 =None

umat = None
#umat = np.load("umat.npy")

params = oep.OEPparams(algorithm = 'leastsq', opt_method = 'L-BFGS-B', diffP_tol=1e-4, outer_maxit = 10)
params.options['ftol'] = 1e-9
params.options['gtol'] = 1e-3
params.options['maxiter'] = 10
params.options['svd_thresh'] = 1e-4

theDMFET = dfet.DFET(mf, mol_frag, mol_env,Ne_frag,Ne_env,\
                     boundary_atoms=boundary_atoms, boundary_atoms2=boundary_atoms2,umat = umat,\
                     oep_params=params, smear_sigma=temp, ecw_method = 'hf',mf_method = mf.xc, plot_dens=True)

umat = theDMFET.embedding_potential()
#INFO: ******************** input file end ********************


System: uname_result(system='Linux', node='tigercpu.princeton.edu', release='3.10.0-957.27.2.el7.x86_64', version='#1 SMP Tue Jul 30 11:12:20 EDT 2019', machine='x86_64', processor='x86_64')  Threads 40
Python 3.7.0 (default, Jun 28 2018, 13:15:42) 
[GCC 7.2.0]
numpy 1.16.4  scipy 1.4.0.dev0+0f78e0f
Date: Thu Aug 15 18:49:31 2019
PySCF version 1.5
PySCF path  /home/xingz/.local/lib/python3.7/site-packages/pyscf

[CONFIG] conf_file None
[INPUT] verbose = 4
[INPUT] num. atoms = 12
[INPUT] num. electrons = 18
[INPUT] charge = 0
[INPUT] spin (= nelec alpha-beta = 2S) = 0
[INPUT] symmetry False subgroup None
[INPUT] Mole.unit = angstrom
[INPUT]  1 GHOST-Al   8.092960000000   4.046480000000  -0.000000000000 AA   15.293477937060   7.646738968530  -0.000000000000 Bohr
[INPUT]  2 GHOST-Al   8.092960000000   6.069720000000  -2.023240000000 AA   15.293477937060  11.470108452795  -3.823369484265 Bohr
[INPUT]  3 GHOST-Al  10.116200000000   4.046480000000  -2.023240000000 AA   19.116847421325   7.646738968530  -3.823369484265 Bohr
[INPUT]  4 GHOST-Al   6.069720000000   4.046480000000  -2.023240000000 AA   11.470108452795   7.646738968530  -3.823369484265 Bohr
[INPUT]  5 GHOST-Al   8.092960000000   2.023240000000  -2.023240000000 AA   15.293477937060   3.823369484265  -3.823369484265 Bohr
[INPUT]  6 GHOST-Al   8.092960000000   4.046480000000  -4.046480000000 AA   15.293477937060   7.646738968530  -7.646738968530 Bohr
[INPUT]  7 Al     6.069720000000   6.069720000000  -0.000000000000 AA   11.470108452795  11.470108452795  -0.000000000000 Bohr
[INPUT]  8 Al    10.116200000000   2.023240000000  -0.000000000000 AA   19.116847421325   3.823369484265  -0.000000000000 Bohr
[INPUT]  9 Al    10.116200000000   6.069720000000  -4.046480000000 AA   19.116847421325  11.470108452795  -7.646738968530 Bohr
[INPUT] 10 Al     6.069720000000   2.023240000000  -0.000000000000 AA   11.470108452795   3.823369484265  -0.000000000000 Bohr
[INPUT] 11 Al     6.069720000000   6.069720000000  -4.046480000000 AA   11.470108452795  11.470108452795  -7.646738968530 Bohr
[INPUT] 12 Al    10.116200000000   2.023240000000  -4.046480000000 AA   19.116847421325   3.823369484265  -7.646738968530 Bohr

nuclear repulsion = 14.0938802665721
number of shells = 48
number of NR pGTOs = 192
number of NR cGTOs = 96
basis = stuttgartdz
ecp = stuttgartdz
CPU time:       322.06


******** <class 'pydmfet.dfet_ao.scf.EmbedSCF'> flags ********
method = EmbedSCF-RKS-RHF
initial guess = minao
damping factor = 0
level shift factor = 0
DIIS = <class 'pyscf.scf.diis.CDIIS'>
DIIS start cycle = 1
DIIS space = 8
SCF tol = 1e-09
SCF gradient tol = None
max. SCF cycles = 50
direct_scf = False
chkfile to save SCF result = /tigress/xingz/pydmfet/examples/research/Al12/dmfet/tmp80x3h92q
max_memory 4000 MB (current use 579 MB)
XC functionals = pbe,pbe
small_rho_cutoff = 1e-07
radial grids: 
    Treutler-Ahlrichs (JCP 102, 346 (M4)) radial grids
    
becke partition: Becke, JCP, 88, 2547 (1988)
pruning grids: <function nwchem_prune at 0x2ba9e7ebb400>
grids dens level: 3
symmetrized grids: False
atomic radii adjust function: <function treutler_atomic_radii_adjust at 0x2ba9e7ebb378>
Set gradient conv threshold to 3.16228e-05
tot grids = 190200
init E= -10.6043051746537
HOMO: -0.09861574711527736 LUMO: -0.09850757315087563
mo_energy:
[-0.3514 -0.2407 -0.2407 -0.2407 -0.1505 -0.1505 -0.1105 -0.0986 -0.0986
 -0.0985 -0.0517 -0.0517 -0.0517  0.0074]
e_fermi =  -0.09480221229274916
[2.    2.    2.    2.    2.    2.    1.917 1.364 1.364 1.354]
entropy correction =  -0.020584010761601833
cycle= 1 E= -11.9805651965785  delta_E= -1.38  |g|= 0.378  |ddm|= 4.54
HOMO: -0.2361185460905466 LUMO: -0.23081404622232193
mo_energy:
[-0.556 -0.409 -0.409 -0.409 -0.275 -0.275 -0.236 -0.236 -0.236 -0.231
 -0.168 -0.168 -0.168 -0.104]
e_fermi =  -0.2290931744298425
[2.    2.    2.    2.    2.    2.    1.612 1.612 1.606 1.17 ]
entropy correction =  -0.02160955237277344
cycle= 2 E= -11.9137997476837  delta_E= 0.0668  |g|= 0.435  |ddm|= 2.16
HOMO: -0.17681887176146582 LUMO: -0.17681887176146543
mo_energy:
[-0.454 -0.331 -0.331 -0.331 -0.229 -0.229 -0.187 -0.177 -0.177 -0.177
 -0.127 -0.127 -0.127 -0.059]
e_fermi =  -0.17294310103584862
[2.    2.    2.    2.    2.    2.    1.888 1.373 1.369 1.369]
entropy correction =  -0.02087211285341568
cycle= 3 E= -12.0385784420479  delta_E= -0.125  |g|= 0.0199  |ddm|= 1.34
HOMO: -0.1733174349164674 LUMO: -0.1730849792563146
mo_energy:
[-0.452 -0.328 -0.328 -0.328 -0.223 -0.223 -0.182 -0.173 -0.173 -0.173
 -0.122 -0.122 -0.122 -0.055]
e_fermi =  -0.16922893200616212
[2.    2.    2.    2.    2.    2.    1.857 1.387 1.387 1.368]
entropy correction =  -0.021162436692439585
cycle= 4 E= -12.0390255769191  delta_E= -0.000447  |g|= 0.00321  |ddm|= 0.064
HOMO: -0.1740481464551328 LUMO: -0.17404814645513197
mo_energy:
[-0.453 -0.329 -0.328 -0.328 -0.224 -0.224 -0.183 -0.174 -0.174 -0.174
 -0.122 -0.122 -0.122 -0.056]
e_fermi =  -0.17006764709572728
[2.    2.    2.    2.    2.    2.    1.858 1.385 1.378 1.378]
entropy correction =  -0.02115333196373126
cycle= 5 E= -12.0390264486439  delta_E= -8.72e-07  |g|= 0.00252  |ddm|= 0.019
HOMO: -0.17422492325493263 LUMO: -0.17414761515873717
mo_energy:
[-0.453 -0.329 -0.329 -0.329 -0.225 -0.225 -0.183 -0.174 -0.174 -0.174
 -0.123 -0.123 -0.123 -0.056]
e_fermi =  -0.17019373885497585
[2.    2.    2.    2.    2.    2.    1.858 1.383 1.383 1.376]
entropy correction =  -0.021152387897761
cycle= 6 E= -12.0390350022985  delta_E= -8.55e-06  |g|= 3.77e-05  |ddm|= 0.00971
HOMO: -0.17422681581944152 LUMO: -0.17414817294153614
mo_energy:
[-0.453 -0.329 -0.329 -0.329 -0.225 -0.225 -0.183 -0.174 -0.174 -0.174
 -0.123 -0.123 -0.123 -0.056]
e_fermi =  -0.17019511869695578
[2.    2.    2.    2.    2.    2.    1.858 1.383 1.383 1.376]
entropy correction =  -0.021152532931602828
cycle= 7 E= -12.039035003515  delta_E= -1.22e-09  |g|= 3.77e-06  |ddm|= 0.000102
HOMO: -0.17422584201799793 LUMO: -0.17414738961700726
mo_energy:
[-0.453 -0.329 -0.329 -0.329 -0.225 -0.225 -0.183 -0.174 -0.174 -0.174
 -0.123 -0.123 -0.123 -0.056]
e_fermi =  -0.17019425505974906
[2.    2.    2.    2.    2.    2.    1.858 1.383 1.383 1.376]
entropy correction =  -0.02115242998584181
cycle= 8 E= -12.0390350035269  delta_E= -1.19e-11  |g|= 2.28e-07  |ddm|= 1.68e-05
HOMO: -0.1742259291280784 LUMO: -0.17414745820045466
mo_energy:
[-0.453 -0.329 -0.329 -0.329 -0.225 -0.225 -0.183 -0.174 -0.174 -0.174
 -0.123 -0.123 -0.123 -0.056]
e_fermi =  -0.17019433256960856
[2.    2.    2.    2.    2.    2.    1.858 1.383 1.383 1.376]
entropy correction =  -0.021152437504943628
Extra cycle  E= -12.039035003527  delta_E= -1.49e-13  |g|= 2.76e-07  |ddm|= 1.53e-06
converged SCF energy = -12.039035003527


******** <class 'pydmfet.dfet_ao.scf.EmbedSCF'> flags ********
method = EmbedSCF-RKS-RHF
initial guess = minao
damping factor = 0
level shift factor = 0
DIIS = <class 'pyscf.scf.diis.CDIIS'>
DIIS start cycle = 1
DIIS space = 8
SCF tol = 1e-09
SCF gradient tol = None
max. SCF cycles = 50
direct_scf = False
chkfile to save SCF result = /tigress/xingz/pydmfet/examples/research/Al12/dmfet/tmpo5joiwsm
max_memory 4000 MB (current use 2162 MB)
XC functionals = pbe,pbe
small_rho_cutoff = 1e-07
radial grids: 
    Treutler-Ahlrichs (JCP 102, 346 (M4)) radial grids
    
becke partition: Becke, JCP, 88, 2547 (1988)
pruning grids: <function nwchem_prune at 0x2ba9e7ebb400>
grids dens level: 3
symmetrized grids: False
atomic radii adjust function: <function treutler_atomic_radii_adjust at 0x2ba9e7ebb378>
Set gradient conv threshold to 3.16228e-05
tot grids = 190200
init E= -10.3277898433107
HOMO: -0.06548869518235279 LUMO: -0.056266527217184434
mo_energy:
[-0.232 -0.22  -0.22  -0.201 -0.201 -0.193 -0.068 -0.065 -0.065 -0.056
 -0.055 -0.055 -0.051 -0.038]
e_fermi =  -0.061517969852163
[2.    2.    2.    2.    2.    2.    1.602 1.377 1.377 0.518 0.437 0.437
 0.215 0.018 0.008 0.008]
entropy correction =  -0.03811396708547972
cycle= 1 E= -11.7813662758275  delta_E= -1.45  |g|= 0.209  |ddm|= 4.26
HOMO: -0.14617509175917498 LUMO: -0.13947871048212307
mo_energy:
[-0.327 -0.317 -0.317 -0.298 -0.298 -0.291 -0.147 -0.146 -0.146 -0.139
 -0.138 -0.138 -0.126 -0.115]
e_fermi =  -0.14254557273828958
[2.    2.    2.    2.    2.    2.    1.438 1.348 1.348 0.703 0.537 0.537
 0.071 0.009 0.004 0.004]
entropy correction =  -0.03885118196260304
cycle= 2 E= -11.7997739117506  delta_E= -0.0184  |g|= 0.0708  |ddm|= 1.07
HOMO: -0.12611608918389344 LUMO: -0.11864225288670202
mo_energy:
[-0.304 -0.293 -0.293 -0.276 -0.276 -0.268 -0.128 -0.126 -0.126 -0.119
 -0.118 -0.118 -0.107 -0.097]
e_fermi =  -0.1225000825154376
[2.    2.    2.    2.    2.    2.    1.469 1.347 1.347 0.632 0.543 0.543
 0.095 0.012 0.005 0.005]
entropy correction =  -0.03906770839797955
cycle= 3 E= -11.8015290102533  delta_E= -0.00176  |g|= 0.0214  |ddm|= 0.253
HOMO: -0.12681211588996033 LUMO: -0.11933482466837562
mo_energy:
[-0.304 -0.294 -0.294 -0.276 -0.276 -0.268 -0.129 -0.127 -0.127 -0.119
 -0.118 -0.118 -0.108 -0.098]
e_fermi =  -0.12318148011095188
[2.    2.    2.    2.    2.    2.    1.487 1.348 1.348 0.633 0.532 0.532
 0.096 0.012 0.005 0.005]
entropy correction =  -0.03885313033318417
cycle= 4 E= -11.8019029577948  delta_E= -0.000374  |g|= 0.00257  |ddm|= 0.0482
HOMO: -0.12659454554690547 LUMO: -0.11917115454675077
mo_energy:
[-0.304 -0.294 -0.294 -0.276 -0.276 -0.268 -0.128 -0.127 -0.127 -0.119
 -0.118 -0.118 -0.108 -0.097]
e_fermi =  -0.12293993310865962
[2.    2.    2.    2.    2.    2.    1.482 1.35  1.35  0.64  0.529 0.529
 0.096 0.012 0.005 0.005]
entropy correction =  -0.03886318509302413
cycle= 5 E= -11.8019093242685  delta_E= -6.37e-06  |g|= 0.000652  |ddm|= 0.00896
HOMO: -0.12669417458637672 LUMO: -0.11926583781471711
mo_energy:
[-0.304 -0.294 -0.294 -0.276 -0.276 -0.268 -0.128 -0.127 -0.127 -0.119
 -0.118 -0.118 -0.108 -0.097]
e_fermi =  -0.12303801003353629
[2.    2.    2.    2.    2.    2.    1.482 1.35  1.35  0.64  0.53  0.53
 0.096 0.012 0.005 0.005]
entropy correction =  -0.03886158102131639
cycle= 6 E= -11.8019096829634  delta_E= -3.59e-07  |g|= 4.5e-05  |ddm|= 0.0021
HOMO: -0.1266975242625748 LUMO: -0.11926859664325043
mo_energy:
[-0.304 -0.294 -0.294 -0.276 -0.276 -0.268 -0.128 -0.127 -0.127 -0.119
 -0.118 -0.118 -0.108 -0.097]
e_fermi =  -0.12304329378378014
[2.    2.    2.    2.    2.    2.    1.482 1.35  1.35  0.639 0.53  0.53
 0.096 0.012 0.005 0.005]
entropy correction =  -0.03886092493345321
cycle= 7 E= -11.8019096862677  delta_E= -3.3e-09  |g|= 6.62e-06  |ddm|= 0.000284
HOMO: -0.12669803121320747 LUMO: -0.11926921080035383
mo_energy:
[-0.304 -0.294 -0.294 -0.276 -0.276 -0.268 -0.128 -0.127 -0.127 -0.119
 -0.118 -0.118 -0.108 -0.097]
e_fermi =  -0.123043670590539
[2.    2.    2.    2.    2.    2.    1.482 1.35  1.35  0.64  0.53  0.53
 0.096 0.012 0.005 0.005]
entropy correction =  -0.03886097240685567
cycle= 8 E= -11.8019096863064  delta_E= -3.86e-11  |g|= 1.39e-06  |ddm|= 2.47e-05
HOMO: -0.1266982635582563 LUMO: -0.11926944703387013
mo_energy:
[-0.304 -0.294 -0.294 -0.276 -0.276 -0.268 -0.128 -0.127 -0.127 -0.119
 -0.118 -0.118 -0.108 -0.097]
e_fermi =  -0.12304391021428708
[2.    2.    2.    2.    2.    2.    1.482 1.35  1.35  0.64  0.53  0.53
 0.096 0.012 0.005 0.005]
entropy correction =  -0.038860968833748795
Extra cycle  E= -11.801909685834  delta_E= 4.72e-10  |g|= 2.15e-05  |ddm|= 3.44e-05
converged SCF energy = -11.801909685834
|umat| =  0.0
rks_ao.ne_frozen =  0
Set gradient conv threshold to 3.16228e-05
Initial guess from hcore.
HOMO:  -3.477226705542287 LUMO:  -3.240129755586218
Fermi energy:      -3.3590626430
[2. 2. 2. 2. 2. 2. 2. 2. 2.]
tot grids = 190200
init E= -8.80356893270844
HOMO:  0.04288280343426839 LUMO:  0.047570901515479276
Fermi energy:       0.0444973435
[2.0000e+00 2.0000e+00 2.0000e+00 2.0000e+00 2.0000e+00 2.0000e+00
 1.6953e+00 1.6953e+00 1.1601e+00 7.0197e-01 7.0197e-01 2.5330e-02
 1.4844e-02 3.3299e-03 8.5724e-04 8.5724e-04]
entropy correction =  -0.02962316743777863
cycle= 1 E= -5.63371297202036  delta_E= 3.17  |g|= 3.24  |ddm|= 12.2
HOMO:  -1.0371717360717418 LUMO:  -0.821241928217928
Fermi energy:      -0.9290635019
[2. 2. 2. 2. 2. 2. 2. 2. 2.]
entropy correction =  -5.141070320739386e-10
cycle= 2 E= -9.2172847403744  delta_E= -3.58  |g|= 1.67  |ddm|= 11.8
HOMO:  -0.21009138487981582 LUMO:  -0.18724380348447228
Fermi energy:      -0.1958130542
[2.0000e+00 2.0000e+00 2.0000e+00 2.0000e+00 2.0000e+00 2.0000e+00
 1.9107e+00 1.8912e+00 1.8912e+00 3.0533e-01 5.6974e-04 5.6974e-04
 4.1422e-04]
entropy correction =  -0.010394659203121309
cycle= 3 E= -11.7494537585198  delta_E= -2.53  |g|= 0.56  |ddm|= 8.63
HOMO:  -0.0859650725688115 LUMO:  -0.08481148856315021
Fermi energy:      -0.0819510758
[2.0000e+00 2.0000e+00 2.0000e+00 2.0000e+00 2.0000e+00 2.0000e+00
 1.9540e+00 1.3811e+00 1.3811e+00 1.2785e+00 1.8129e-03 1.7091e-03
 1.7091e-03]
entropy correction =  -0.02021704145125403
cycle= 4 E= -11.7732550725376  delta_E= -0.0238  |g|= 0.781  |ddm|=  1.6
HOMO:  -0.10401568868666687 LUMO:  -0.10331445338473674
Fermi energy:      -0.1001156451
[2.0000e+00 2.0000e+00 2.0000e+00 2.0000e+00 2.0000e+00 2.0000e+00
 1.9450e+00 1.3714e+00 1.3714e+00 1.3094e+00 1.0090e-03 9.5227e-04
 9.5227e-04]
entropy correction =  -0.0202813464733284
cycle= 5 E= -11.8859416041261  delta_E= -0.113  |g|= 0.605  |ddm|= 0.37
HOMO:  -0.1588427723549226 LUMO:  -0.15796071173281256
Fermi energy:      -0.1547088770
[2.0000e+00 2.0000e+00 2.0000e+00 2.0000e+00 2.0000e+00 2.0000e+00
 1.9024e+00 1.3913e+00 1.3913e+00 1.3142e+00 2.5366e-04 2.4390e-04
 2.4390e-04]
entropy correction =  -0.0207082826612209
cycle= 6 E= -12.0313870682627  delta_E= -0.145  |g|= 0.117  |ddm|= 0.962
HOMO:  -0.17174144532271846 LUMO:  -0.17174144532271535
Fermi energy:      -0.1680798142
[2.0000e+00 2.0000e+00 2.0000e+00 2.0000e+00 2.0000e+00 2.0000e+00
 1.8621e+00 1.4363e+00 1.3506e+00 1.3506e+00 1.5489e-04 1.5489e-04
 1.4612e-04]
entropy correction =  -0.021091557076776617
cycle= 7 E= -12.0384561932633  delta_E= -0.00707  |g|= 0.0238  |ddm|= 0.272
HOMO:  -0.17474665491188934 LUMO:  -0.1746216106026716
Fermi energy:      -0.1706758745
[2.0000e+00 2.0000e+00 2.0000e+00 2.0000e+00 2.0000e+00 2.0000e+00
 1.8524e+00 1.3860e+00 1.3860e+00 1.3753e+00 1.3970e-04 1.3970e-04
 1.3886e-04]
entropy correction =  -0.021203942440179053
cycle= 8 E= -12.0390270809458  delta_E= -0.000571  |g|= 0.00414  |ddm|= 0.0895
HOMO:  -0.17422577464545727 LUMO:  -0.17414215676586378
Fermi energy:      -0.1701940126
[2.0000e+00 2.0000e+00 2.0000e+00 2.0000e+00 2.0000e+00 2.0000e+00
 1.8588e+00 1.3827e+00 1.3827e+00 1.3755e+00 1.4667e-04 1.4667e-04
 1.4579e-04]
entropy correction =  -0.02114892647930347
cycle= 9 E= -12.0390389323609  delta_E= -1.19e-05  |g|= 0.000131  |ddm|= 0.0123
HOMO:  -0.17423378728196115 LUMO:  -0.17415515293485445
Fermi energy:      -0.1702020934
[2.0000e+00 2.0000e+00 2.0000e+00 2.0000e+00 2.0000e+00 2.0000e+00
 1.8584e+00 1.3827e+00 1.3827e+00 1.3759e+00 1.4635e-04 1.4635e-04
 1.4542e-04]
entropy correction =  -0.02115253827409697
cycle= 10 E= -12.0390389548241  delta_E= -2.25e-08  |g|= 1.77e-05  |ddm|= 0.000526
HOMO:  -0.17423105990244914 LUMO:  -0.17415268665807615
Fermi energy:      -0.1701994966
[2.0000e+00 2.0000e+00 2.0000e+00 2.0000e+00 2.0000e+00 2.0000e+00
 1.8584e+00 1.3826e+00 1.3826e+00 1.3759e+00 1.4636e-04 1.4636e-04
 1.4543e-04]
entropy correction =  -0.02115244335039778
cycle= 11 E= -12.0390389550017  delta_E= -1.78e-10  |g|= 7.12e-07  |ddm|= 4.84e-05
HOMO:  -0.17423125364149727 LUMO:  -0.17415278188674765
Fermi energy:      -0.1701996546
[2.0000e+00 2.0000e+00 2.0000e+00 2.0000e+00 2.0000e+00 2.0000e+00
 1.8584e+00 1.3826e+00 1.3826e+00 1.3759e+00 1.4636e-04 1.4636e-04
 1.4543e-04]
entropy correction =  -0.021152448922003086
Extra cycle  E= -12.039038955001  delta_E= 6.68e-13  |g|= 1.05e-06  |ddm|= 6.45e-06
entropy correction =  -0.021152448922003086
rks_ao.ne_frozen =  0
Set gradient conv threshold to 3.16228e-05
Initial guess from hcore.
HOMO:  -2.436004783625558 LUMO:  -2.4206932012259745
Fermi energy:      -2.4293789878
[2.     2.     2.     2.     2.     2.     2.     1.5801 1.5801 0.2993
 0.207  0.207  0.1265]
tot grids = 190200
init E= -8.81329983410958
HOMO:  0.01678328140934159 LUMO:  0.017820927422577692
Fermi energy:       0.0169088589
[2.0000e+00 2.0000e+00 2.0000e+00 2.0000e+00 2.0000e+00 2.0000e+00
 1.9164e+00 1.0126e+00 1.0126e+00 9.0905e-01 9.0905e-01 1.0202e-01
 6.5962e-02 2.9205e-02 2.9205e-02 8.1264e-03 2.2872e-03 2.2872e-03
 3.7824e-04 3.7824e-04 3.6006e-04]
entropy correction =  -0.034874951556123336
cycle= 1 E= -9.95022213911374  delta_E= -1.14  |g|= 1.62  |ddm|= 22.3
HOMO:  -0.3519184811904401 LUMO:  -0.3357958816882678
Fermi energy:      -0.3433554132
[2.0000e+00 2.0000e+00 2.0000e+00 2.0000e+00 2.0000e+00 2.0000e+00
 1.9979e+00 1.6943e+00 1.6943e+00 3.6131e-01 2.0790e-01 2.1944e-02
 2.1944e-02 2.7693e-04]
entropy correction =  -0.01791721139257112
cycle= 2 E= -9.56354834316257  delta_E= 0.387  |g|= 2.09  |ddm|= 21.7
HOMO:  -0.19437930049418042 LUMO:  -0.18129054177827353
Fermi energy:      -0.1889133971
[2.0000e+00 2.0000e+00 2.0000e+00 2.0000e+00 2.0000e+00 2.0000e+00
 1.7842e+00 1.7842e+00 1.4980e+00 3.5758e-01 3.5758e-01 1.1080e-01
 8.4232e-02 2.2125e-02 3.8002e-04 3.8002e-04 2.8368e-04 2.8368e-04]
entropy correction =  -0.026428326689335924
cycle= 3 E= -11.6484145729086  delta_E= -2.08  |g|= 0.406  |ddm|= 4.63
HOMO:  -0.14269743472496582 LUMO:  -0.13376035437382142
Fermi energy:      -0.1387514262
[2.0000e+00 2.0000e+00 2.0000e+00 2.0000e+00 2.0000e+00 2.0000e+00
 1.5421e+00 1.3753e+00 1.3753e+00 5.3859e-01 5.1296e-01 5.1296e-01
 1.1899e-01 1.4747e-02 3.9428e-03 3.9428e-03 5.5039e-04 5.5039e-04]
entropy correction =  -0.03803935591577559
cycle= 4 E= -11.7843895682334  delta_E= -0.136  |g|= 0.173  |ddm|=  1.6
HOMO:  -0.13716573136111848 LUMO:  -0.12914930892260484
Fermi energy:      -0.1333991881
[2.0000e+00 2.0000e+00 2.0000e+00 2.0000e+00 2.0000e+00 2.0000e+00
 1.5431e+00 1.3598e+00 1.3598e+00 5.9888e-01 5.0453e-01 5.0453e-01
 1.0782e-01 1.1951e-02 4.1787e-03 4.1787e-03 6.3890e-04 6.3890e-04]
entropy correction =  -0.03813582321358245
cycle= 5 E= -11.7953827677402  delta_E= -0.011  |g|= 0.108  |ddm|= 0.151
HOMO:  -0.12759700912130384 LUMO:  -0.11979665752677213
Fermi energy:      -0.1240309375
[2.0000e+00 2.0000e+00 2.0000e+00 2.0000e+00 2.0000e+00 2.0000e+00
 1.5188e+00 1.3422e+00 1.3422e+00 6.0019e-01 5.3772e-01 5.3772e-01
 9.7395e-02 1.2437e-02 4.8569e-03 4.8569e-03 7.8370e-04 7.8370e-04]
entropy correction =  -0.03867338788855617
cycle= 6 E= -11.8014577058214  delta_E= -0.00607  |g|= 0.0228  |ddm|= 0.198
HOMO:  -0.12678979942991594 LUMO:  -0.1193768353461448
Fermi energy:      -0.1230742073
[2.0000e+00 2.0000e+00 2.0000e+00 2.0000e+00 2.0000e+00 2.0000e+00
 1.4705e+00 1.3554e+00 1.3554e+00 6.4624e-01 5.2639e-01 5.2639e-01
 9.6351e-02 1.1912e-02 4.9209e-03 4.9209e-03 8.1609e-04 8.1609e-04]
entropy correction =  -0.03888476573386186
cycle= 7 E= -11.8019201423328  delta_E= -0.000462  |g|= 0.00109  |ddm|= 0.0589
HOMO:  -0.12669315723588398 LUMO:  -0.11925604814671191
Fermi energy:      -0.1230500545
[2.0000e+00 2.0000e+00 2.0000e+00 2.0000e+00 2.0000e+00 2.0000e+00
 1.4843e+00 1.3490e+00 1.3490e+00 6.3781e-01 5.3043e-01 5.3043e-01
 9.5722e-02 1.1724e-02 4.9318e-03 4.9318e-03 8.1982e-04 8.1982e-04]
entropy correction =  -0.0388563065254109
cycle= 8 E= -11.8019235876753  delta_E= -3.45e-06  |g|= 0.000314  |ddm|= 0.0106
HOMO:  -0.1267090065447568 LUMO:  -0.11928023267386478
Fermi energy:      -0.1230535706
[2.0000e+00 2.0000e+00 2.0000e+00 2.0000e+00 2.0000e+00 2.0000e+00
 1.4817e+00 1.3501e+00 1.3501e+00 6.3961e-01 5.2979e-01 5.2979e-01
 9.5673e-02 1.1722e-02 4.9271e-03 4.9271e-03 8.1914e-04 8.1914e-04]
entropy correction =  -0.03886128007633381
cycle= 9 E= -11.8019237345636  delta_E= -1.47e-07  |g|= 0.000124  |ddm|= 0.00191
HOMO:  -0.12671035777790557 LUMO:  -0.11928134469829242
Fermi energy:      -0.1230551138
[2.0000e+00 2.0000e+00 2.0000e+00 2.0000e+00 2.0000e+00 2.0000e+00
 1.4818e+00 1.3501e+00 1.3501e+00 6.3957e-01 5.2980e-01 5.2980e-01
 9.5676e-02 1.1722e-02 4.9272e-03 4.9272e-03 8.1916e-04 8.1916e-04]
entropy correction =  -0.0388611736665626
cycle= 10 E= -11.801923602657  delta_E= 1.32e-07  |g|= 0.00038  |ddm|= 0.000758
HOMO:  -0.12671111813967156 LUMO:  -0.11928159489345133
Fermi energy:      -0.1230566028
[2.0000e+00 2.0000e+00 2.0000e+00 2.0000e+00 2.0000e+00 2.0000e+00
 1.4819e+00 1.3500e+00 1.3500e+00 6.3946e-01 5.2984e-01 5.2984e-01
 9.5679e-02 1.1722e-02 4.9279e-03 4.9279e-03 8.1931e-04 8.1931e-04]
entropy correction =  -0.038861043579188244
cycle= 11 E= -11.8019237508393  delta_E= -1.48e-07  |g|= 3.88e-06  |ddm|= 0.000585
HOMO:  -0.1267102675133003 LUMO:  -0.11928075244259444
Fermi energy:      -0.1230557282
[2.0000e+00 2.0000e+00 2.0000e+00 2.0000e+00 2.0000e+00 2.0000e+00
 1.4819e+00 1.3500e+00 1.3500e+00 6.3947e-01 5.2984e-01 5.2984e-01
 9.5679e-02 1.1722e-02 4.9279e-03 4.9279e-03 8.1931e-04 8.1931e-04]
entropy correction =  -0.03886105431278185
cycle= 12 E= -11.8019237508468  delta_E= -7.49e-12  |g|= 3.01e-07  |ddm|= 1.15e-05
HOMO:  -0.12671030270951777 LUMO:  -0.1192807961896446
Fermi energy:      -0.1230557727
[2.0000e+00 2.0000e+00 2.0000e+00 2.0000e+00 2.0000e+00 2.0000e+00
 1.4819e+00 1.3500e+00 1.3500e+00 6.3947e-01 5.2984e-01 5.2984e-01
 9.5679e-02 1.1722e-02 4.9279e-03 4.9279e-03 8.1931e-04 8.1930e-04]
entropy correction =  -0.03886105256561057
Extra cycle  E= -11.8019237508452  delta_E= 1.57e-12  |g|= 1.21e-06  |ddm|= 3.28e-06
degenerate subspace detected:
nsub = 30
subspace 1:
2, 3, 4, 
subspace 2:
5, 6, 
subspace 3:
8, 9, 10, 
subspace 4:
11, 12, 13, 
subspace 5:
14, 15, 16, 
subspace 6:
17, 18, 
subspace 7:
20, 21, 
subspace 8:
23, 24, 25, 26, 27, 
subspace 9:
29, 30, 
subspace 10:
32, 33, 34, 
subspace 11:
36, 37, 
subspace 12:
39, 40, 
subspace 13:
41, 42, 
subspace 14:
46, 47, 
subspace 15:
49, 50, 
subspace 16:
52, 53, 
subspace 17:
54, 55, 56, 57, 
subspace 18:
59, 60, 
subspace 19:
61, 62, 
subspace 20:
63, 64, 65, 
subspace 21:
69, 70, 
subspace 22:
71, 72, 
subspace 23:
75, 76, 
subspace 24:
77, 78, 
subspace 25:
80, 81, 
subspace 26:
82, 83, 
subspace 27:
87, 88, 
subspace 28:
89, 90, 
subspace 29:
92, 93, 
subspace 30:
94, 95, 

 Adding contributions from fluctuation of occupation numbers.
degenerate subspace detected:
nsub = 31
subspace 1:
2, 3, 
subspace 2:
4, 5, 
subspace 3:
8, 9, 
subspace 4:
11, 12, 
subspace 5:
15, 16, 
subspace 6:
17, 18, 
subspace 7:
19, 20, 21, 22, 23, 
subspace 8:
27, 28, 
subspace 9:
30, 31, 
subspace 10:
33, 34, 
subspace 11:
35, 36, 
subspace 12:
37, 38, 
subspace 13:
39, 40, 41, 42, 
subspace 14:
45, 46, 
subspace 15:
47, 48, 49, 
subspace 16:
50, 51, 52, 
subspace 17:
53, 54, 
subspace 18:
57, 58, 
subspace 19:
60, 61, 
subspace 20:
62, 63, 
subspace 21:
64, 65, 
subspace 22:
68, 69, 70, 
subspace 23:
72, 73, 
subspace 24:
74, 75, 76, 
subspace 25:
77, 78, 
subspace 26:
81, 82, 
subspace 27:
83, 84, 
subspace 28:
86, 87, 
subspace 29:
88, 89, 
subspace 30:
93, 94, 
subspace 31:
95, 96, 

 Adding contributions from fluctuation of occupation numbers.
entropy correction =  -0.03886105256561057
2-norm (grad),       max(grad):
2.5544969933784105 ,  0.25063016764658963
time of hessian construction : 34.350  (cpu),  1.652  (wall) 
time of hessian construction : 31.740  (cpu),  0.818  (wall) 
f =  3.26272744458967
|umat| =  1.412824435961845
rks_ao.ne_frozen =  0
Set gradient conv threshold to 3.16228e-05
Initial guess from hcore.
HOMO:  -3.7395754053962067 LUMO:  -3.7395129920531733
Fermi energy:      -3.7395441273
[2.     2.     2.     2.     2.     2.     2.     1.0031 1.0031 0.9969
 0.9969]
tot grids = 190200
init E= -86.3379008127838
HOMO:  -0.7426108513212916 LUMO:  -0.7426107410020488
Fermi energy:      -0.7425083052
[2.     2.     2.     2.     2.     2.     2.     1.9795 1.0103 1.0102]
entropy correction =  -0.014433307219465624
cycle= 1 E= -88.2890331647124  delta_E= -1.95  |g|= 1.14  |ddm|= 56.1
HOMO:  -1.1402502330993551 LUMO:  -1.1402496853417134
Fermi energy:      -1.1402566560
[2.0000e+00 2.0000e+00 2.0000e+00 2.0000e+00 2.0000e+00 2.0000e+00
 2.0000e+00 2.0000e+00 9.9936e-01 9.9930e-01 6.6968e-04 6.6967e-04]
entropy correction =  -0.013923221398127121
cycle= 2 E= -88.556136361536  delta_E= -0.267  |g|= 0.353  |ddm|= 15.4
HOMO:  -1.0144658406432834 LUMO:  -1.0144657703110656
Fermi energy:      -1.0144658702
[2. 2. 2. 2. 2. 2. 2. 2. 1. 1.]
entropy correction =  -0.013863826254915166
cycle= 3 E= -88.599275092669  delta_E= -0.0431  |g|= 0.0434  |ddm|= 6.08
HOMO:  -1.0263528479001203 LUMO:  -1.0263524747958257
Fermi energy:      -1.0263527459
[2. 2. 2. 2. 2. 2. 2. 2. 1. 1.]
entropy correction =  -0.013864074580273129
cycle= 4 E= -88.5999115534948  delta_E= -0.000636  |g|= 0.00281  |ddm|= 0.583
HOMO:  -1.0272069254468696 LUMO:  -1.0272067570954797
Fermi energy:      -1.0272069307
[2. 2. 2. 2. 2. 2. 2. 2. 1. 1.]
entropy correction =  -0.013864134884487877
cycle= 5 E= -88.5999139122223  delta_E= -2.36e-06  |g|= 2.46e-05  |ddm|= 0.033
HOMO:  -1.0272111477377532 LUMO:  -1.0272108050937074
Fermi energy:      -1.0272110658
[2. 2. 2. 2. 2. 2. 2. 2. 1. 1.]
entropy correction =  -0.013864134787393699
cycle= 6 E= -88.59991391248  delta_E= -2.58e-10  |g|= 2.82e-06  |ddm|= 0.000352
HOMO:  -1.0272108986136748 LUMO:  -1.0272107236345893
Fermi energy:      -1.0272109005
[2. 2. 2. 2. 2. 2. 2. 2. 1. 1.]
entropy correction =  -0.013864134776527795
Extra cycle  E= -88.5999139124752  delta_E= 4.76e-12  |g|= 3.87e-06  |ddm|= 9.95e-05
entropy correction =  -0.013864134776527795
rks_ao.ne_frozen =  0
Set gradient conv threshold to 3.16228e-05
Initial guess from hcore.
HOMO:  -2.7129214752472537 LUMO:  -2.702630069272385
Fermi energy:      -2.7054129555
[2.     2.     2.     2.     2.     2.     2.     1.6357 1.6357 0.7287]
tot grids = 190200
init E= -91.4693530585536
HOMO:  -0.4176225629584105 LUMO:  -0.3523549734423758
Fermi energy:      -0.3849907141
[2.     2.     2.     2.     2.     2.     2.     1.9971 1.9971 0.0029
 0.0029]
entropy correction =  -0.0004403829063109327
cycle= 1 E= -92.6937096793136  delta_E= -1.22  |g|= 0.604  |ddm|= 48.4
HOMO:  -0.574814817002663 LUMO:  -0.5046483946919881
Fermi energy:      -0.5397318065
[2.0000e+00 2.0000e+00 2.0000e+00 2.0000e+00 2.0000e+00 2.0000e+00
 2.0000e+00 1.9982e+00 1.9982e+00 1.7920e-03 1.7920e-03]
entropy correction =  -0.0002873362922377912
cycle= 2 E= -92.7654465154246  delta_E= -0.0717  |g|= 0.128  |ddm|= 6.23
HOMO:  -0.5459529098007045 LUMO:  -0.4686128584095727
Fermi energy:      -0.5072832884
[2.0000e+00 2.0000e+00 2.0000e+00 2.0000e+00 2.0000e+00 2.0000e+00
 2.0000e+00 1.9991e+00 1.9991e+00 8.7492e-04 8.7491e-04]
entropy correction =  -0.00015285773838067402
cycle= 3 E= -92.7682101263132  delta_E= -0.00276  |g|= 0.00118  |ddm|= 1.12
HOMO:  -0.545663014816174 LUMO:  -0.46820211015486285
Fermi energy:      -0.5069329707
[2.0000e+00 2.0000e+00 2.0000e+00 2.0000e+00 2.0000e+00 2.0000e+00
 2.0000e+00 1.9991e+00 1.9991e+00 8.6442e-04 8.6441e-04]
entropy correction =  -0.00015123146908547355
cycle= 4 E= -92.7682103919236  delta_E= -2.66e-07  |g|= 6.96e-05  |ddm|= 0.013
HOMO:  -0.5456855657890537 LUMO:  -0.46823095839937123
Fermi energy:      -0.5069586698
[2.0000e+00 2.0000e+00 2.0000e+00 2.0000e+00 2.0000e+00 2.0000e+00
 2.0000e+00 1.9991e+00 1.9991e+00 8.6496e-04 8.6495e-04]
entropy correction =  -0.00015131576985780905
cycle= 5 E= -92.768210393102  delta_E= -1.18e-09  |g|= 2.23e-06  |ddm|= 0.000989
HOMO:  -0.5456851744534614 LUMO:  -0.468230261564387
Fermi energy:      -0.5069581258
[2.0000e+00 2.0000e+00 2.0000e+00 2.0000e+00 2.0000e+00 2.0000e+00
 2.0000e+00 1.9991e+00 1.9991e+00 8.6493e-04 8.6492e-04]
entropy correction =  -0.00015131168126051542
cycle= 6 E= -92.768210393107  delta_E= -4.99e-12  |g|= 1.02e-07  |ddm|= 3.84e-05
HOMO:  -0.5456851519628773 LUMO:  -0.46823023763213323
Fermi energy:      -0.5069581025
[2.0000e+00 2.0000e+00 2.0000e+00 2.0000e+00 2.0000e+00 2.0000e+00
 2.0000e+00 1.9991e+00 1.9991e+00 8.6493e-04 8.6492e-04]
entropy correction =  -0.00015131166117575537
Extra cycle  E= -92.7682103931049  delta_E= 2.12e-12  |g|= 7.16e-08  |ddm|= 1.99e-06
degenerate subspace detected:
nsub = 32
subspace 1:
1, 2, 
subspace 2:
3, 4, 
subspace 3:
9, 10, 
subspace 4:
11, 12, 
subspace 5:
15, 16, 
subspace 6:
17, 18, 
subspace 7:
19, 20, 21, 
subspace 8:
23, 24, 25, 
subspace 9:
26, 27, 
subspace 10:
28, 29, 
subspace 11:
32, 33, 
subspace 12:
36, 37, 
subspace 13:
39, 40, 41, 42, 
subspace 14:
44, 45, 
subspace 15:
46, 47, 
subspace 16:
49, 50, 
subspace 17:
51, 52, 
subspace 18:
53, 54, 
subspace 19:
57, 58, 
subspace 20:
59, 60, 
subspace 21:
63, 64, 
subspace 22:
65, 66, 
subspace 23:
70, 71, 
subspace 24:
72, 73, 
subspace 25:
75, 76, 
subspace 26:
77, 78, 
subspace 27:
79, 80, 
subspace 28:
83, 84, 
subspace 29:
86, 87, 
subspace 30:
88, 89, 
subspace 31:
93, 94, 
subspace 32:
95, 96, 

 Adding contributions from fluctuation of occupation numbers.
degenerate subspace detected:
nsub = 33
subspace 1:
1, 2, 
subspace 2:
3, 4, 
subspace 3:
8, 9, 
subspace 4:
10, 11, 
subspace 5:
12, 13, 
subspace 6:
14, 15, 
subspace 7:
18, 19, 20, 
subspace 8:
21, 22, 
subspace 9:
23, 24, 
subspace 10:
25, 26, 
subspace 11:
27, 28, 
subspace 12:
30, 31, 
subspace 13:
33, 34, 
subspace 14:
39, 40, 
subspace 15:
41, 42, 
subspace 16:
44, 45, 46, 
subspace 17:
47, 48, 
subspace 18:
49, 50, 
subspace 19:
51, 52, 
subspace 20:
57, 58, 
subspace 21:
60, 61, 
subspace 22:
65, 66, 
subspace 23:
68, 69, 
subspace 24:
70, 71, 
subspace 25:
73, 74, 
subspace 26:
75, 76, 
subspace 27:
77, 78, 
subspace 28:
79, 80, 
subspace 29:
81, 82, 
subspace 30:
85, 86, 
subspace 31:
89, 90, 
subspace 32:
93, 94, 
subspace 33:
95, 96, 

 Adding contributions from fluctuation of occupation numbers.
entropy correction =  -0.00015131166117575537
2-norm (grad),       max(grad):
614.7444736284506 ,  72.00357313155703
time of hessian construction : 18.620  (cpu),  0.487  (wall) 
time of hessian construction : 18.280  (cpu),  0.469  (wall) 
f =  188955.38392836042
|umat| =  0.00014699311288533814
rks_ao.ne_frozen =  0
Set gradient conv threshold to 3.16228e-05
Initial guess from hcore.
HOMO:  -3.4772272838320766 LUMO:  -3.240138752366497
Fermi energy:      -3.3590632213
[2. 2. 2. 2. 2. 2. 2. 2. 2.]
tot grids = 190200
init E= -8.80341726537623
HOMO:  0.04288539167632687 LUMO:  0.04760565007072264
Fermi energy:       0.0445128076
[2.0000e+00 2.0000e+00 2.0000e+00 2.0000e+00 2.0000e+00 2.0000e+00
 1.6964e+00 1.6964e+00 1.1613e+00 7.0021e-01 7.0021e-01 2.5409e-02
 1.4891e-02 3.3009e-03 8.6026e-04 8.6026e-04]
entropy correction =  -0.02959398397568623
cycle= 1 E= -5.63427502418431  delta_E= 3.17  |g|= 3.24  |ddm|= 12.2
HOMO:  -1.0371108452254432 LUMO:  -0.8211809135298199
Fermi energy:      -0.9290000978
[2. 2. 2. 2. 2. 2. 2. 2. 2.]
entropy correction =  -5.143757711171864e-10
cycle= 2 E= -9.21714920034528  delta_E= -3.58  |g|= 1.67  |ddm|= 11.8
HOMO:  -0.2100541374538963 LUMO:  -0.18719890035666775
Fermi energy:      -0.1957720414
[2.0000e+00 2.0000e+00 2.0000e+00 2.0000e+00 2.0000e+00 2.0000e+00
 1.9107e+00 1.8913e+00 1.8913e+00 3.0513e-01 5.7088e-04 5.7088e-04
 4.1480e-04]
entropy correction =  -0.010390173507118681
cycle= 3 E= -11.7492295257131  delta_E= -2.53  |g|= 0.56  |ddm|= 8.63
HOMO:  -0.08596360003330059 LUMO:  -0.08480961130599216
Fermi energy:      -0.0819489669
[2.0000e+00 2.0000e+00 2.0000e+00 2.0000e+00 2.0000e+00 2.0000e+00
 1.9539e+00 1.3812e+00 1.3812e+00 1.2785e+00 1.8126e-03 1.7090e-03
 1.7090e-03]
entropy correction =  -0.020218954249735587
cycle= 4 E= -11.7730775514539  delta_E= -0.0238  |g|= 0.781  |ddm|= 1.59
HOMO:  -0.10401861387187944 LUMO:  -0.1033174357509264
Fermi energy:      -0.1001181332
[2.0000e+00 2.0000e+00 2.0000e+00 2.0000e+00 2.0000e+00 2.0000e+00
 1.9448e+00 1.3714e+00 1.3714e+00 1.3094e+00 1.0087e-03 9.5213e-04
 9.5213e-04]
entropy correction =  -0.020283016173034754
cycle= 5 E= -11.8858399988954  delta_E= -0.113  |g|= 0.605  |ddm|= 0.37
HOMO:  -0.15885304785058585 LUMO:  -0.1579719889986105
Fermi energy:      -0.1547190228
[2.0000e+00 2.0000e+00 2.0000e+00 2.0000e+00 2.0000e+00 2.0000e+00
 1.9023e+00 1.3914e+00 1.3914e+00 1.3143e+00 2.5358e-04 2.4385e-04
 2.4385e-04]
entropy correction =  -0.020709694679011882
cycle= 6 E= -12.0313479536613  delta_E= -0.146  |g|= 0.117  |ddm|= 0.962
HOMO:  -0.1717564340551594 LUMO:  -0.17175643402495733
Fermi energy:      -0.1680944416
[2.0000e+00 2.0000e+00 2.0000e+00 2.0000e+00 2.0000e+00 2.0000e+00
 1.8620e+00 1.4363e+00 1.3507e+00 1.3507e+00 1.5484e-04 1.5484e-04
 1.4605e-04]
entropy correction =  -0.021092767821292675
cycle= 7 E= -12.0384223862147  delta_E= -0.00707  |g|= 0.0238  |ddm|= 0.271
HOMO:  -0.1747593528218997 LUMO:  -0.17463525293374266
Fermi energy:      -0.1706883132
[2.0000e+00 2.0000e+00 2.0000e+00 2.0000e+00 2.0000e+00 2.0000e+00
 1.8522e+00 1.3860e+00 1.3860e+00 1.3754e+00 1.3967e-04 1.3967e-04
 1.3881e-04]
entropy correction =  -0.021205224378647622
cycle= 8 E= -12.0389933245983  delta_E= -0.000571  |g|= 0.00414  |ddm|= 0.0895
HOMO:  -0.17423886486533402 LUMO:  -0.17415617383658852
Fermi energy:      -0.1702068608
[2.0000e+00 2.0000e+00 2.0000e+00 2.0000e+00 2.0000e+00 2.0000e+00
 1.8587e+00 1.3827e+00 1.3827e+00 1.3756e+00 1.4664e-04 1.4664e-04
 1.4574e-04]
entropy correction =  -0.021150192766096622
cycle= 9 E= -12.0390051640296  delta_E= -1.18e-05  |g|= 0.000131  |ddm|= 0.0123
HOMO:  -0.17424695954031766 LUMO:  -0.17416924915133147
Fermi energy:      -0.1702150178
[2.0000e+00 2.0000e+00 2.0000e+00 2.0000e+00 2.0000e+00 2.0000e+00
 1.8583e+00 1.3827e+00 1.3827e+00 1.3760e+00 1.4632e-04 1.4632e-04
 1.4537e-04]
entropy correction =  -0.02115381250599295
cycle= 10 E= -12.0390051865523  delta_E= -2.25e-08  |g|= 1.91e-05  |ddm|= 0.000527
HOMO:  -0.17424409183646727 LUMO:  -0.17416656806228187
Fermi energy:      -0.1702122591
[2.0000e+00 2.0000e+00 2.0000e+00 2.0000e+00 2.0000e+00 2.0000e+00
 1.8583e+00 1.3827e+00 1.3827e+00 1.3760e+00 1.4633e-04 1.4633e-04
 1.4538e-04]
entropy correction =  -0.021153710010565426
cycle= 11 E= -12.0390051863246  delta_E= 2.28e-10  |g|= 2.71e-05  |ddm|= 7.04e-05
HOMO:  -0.17424464872484693 LUMO:  -0.17416718011171198
Fermi energy:      -0.1702128232
[2.0000e+00 2.0000e+00 2.0000e+00 2.0000e+00 2.0000e+00 2.0000e+00
 1.8583e+00 1.3827e+00 1.3827e+00 1.3760e+00 1.4633e-04 1.4633e-04
 1.4537e-04]
entropy correction =  -0.02115373533845375
Extra cycle  E= -12.0390051743234  delta_E= 1.2e-08  |g|= 0.000145  |ddm|= 0.000243
entropy correction =  -0.02115373533845375
rks_ao.ne_frozen =  0
Set gradient conv threshold to 3.16228e-05
Initial guess from hcore.
HOMO:  -2.435980544696044 LUMO:  -2.4207589310214987
Fermi energy:      -2.4293895520
[2.     2.     2.     2.     2.     2.     2.     1.5778 1.5778 0.3022
 0.2079 0.2079 0.1265]
tot grids = 190200
init E= -8.8136010966442
HOMO:  0.016797289593247434 LUMO:  0.017847610810360303
Fermi energy:       0.0169353955
[2.0000e+00 2.0000e+00 2.0000e+00 2.0000e+00 2.0000e+00 2.0000e+00
 1.9116e+00 1.0138e+00 1.0138e+00 9.0903e-01 9.0903e-01 1.0266e-01
 6.6343e-02 2.9779e-02 2.9779e-02 8.1732e-03 2.3035e-03 2.3035e-03
 3.8154e-04 3.8154e-04 3.6195e-04]
entropy correction =  -0.0349908664416067
cycle= 1 E= -9.95089401837775  delta_E= -1.14  |g|= 1.62  |ddm|=   22
HOMO:  -0.35178254613671656 LUMO:  -0.33568640540433287
Fermi energy:      -0.3432554113
[2.0000e+00 2.0000e+00 2.0000e+00 2.0000e+00 2.0000e+00 2.0000e+00
 1.9979e+00 1.6925e+00 1.6925e+00 3.6075e-01 2.1205e-01 2.2025e-02
 2.2025e-02 2.7634e-04]
entropy correction =  -0.017993385648577335
cycle= 2 E= -9.56524656442063  delta_E= 0.386  |g|= 2.09  |ddm|= 21.4
HOMO:  -0.194380360859865 LUMO:  -0.18123538515296614
Fermi energy:      -0.1888707892
[2.0000e+00 2.0000e+00 2.0000e+00 2.0000e+00 2.0000e+00 2.0000e+00
 1.7835e+00 1.7835e+00 1.5012e+00 3.5684e-01 3.5684e-01 1.1053e-01
 8.4112e-02 2.2055e-02 3.8015e-04 3.8015e-04 2.8330e-04 2.8330e-04]
entropy correction =  -0.02640601578963248
cycle= 3 E= -11.6485142460654  delta_E= -2.08  |g|= 0.405  |ddm|= 4.62
HOMO:  -0.14266313896707528 LUMO:  -0.13374634775003733
Fermi energy:      -0.1387236223
[2.0000e+00 2.0000e+00 2.0000e+00 2.0000e+00 2.0000e+00 2.0000e+00
 1.5419e+00 1.3748e+00 1.3748e+00 5.3967e-01 5.1310e-01 5.1310e-01
 1.1897e-01 1.4746e-02 3.9443e-03 3.9443e-03 5.5077e-04 5.5077e-04]
entropy correction =  -0.03805200611872512
cycle= 4 E= -11.7844045202061  delta_E= -0.136  |g|= 0.173  |ddm|= 1.62
HOMO:  -0.13714416648079433 LUMO:  -0.1291414915309733
Fermi energy:      -0.1333816532
[2.0000e+00 2.0000e+00 2.0000e+00 2.0000e+00 2.0000e+00 2.0000e+00
 1.5428e+00 1.3594e+00 1.3594e+00 5.9969e-01 5.0461e-01 5.0461e-01
 1.0782e-01 1.1953e-02 4.1792e-03 4.1792e-03 6.3916e-04 6.3916e-04]
entropy correction =  -0.038144888230083475
cycle= 5 E= -11.7953751802279  delta_E= -0.011  |g|= 0.108  |ddm|= 0.151
HOMO:  -0.127579965457959 LUMO:  -0.11978424914634817
Fermi energy:      -0.1240159290
[2.0000e+00 2.0000e+00 2.0000e+00 2.0000e+00 2.0000e+00 2.0000e+00
 1.5187e+00 1.3420e+00 1.3420e+00 6.0040e-01 5.3782e-01 5.3782e-01
 9.7423e-02 1.2438e-02 4.8578e-03 4.8578e-03 7.8413e-04 7.8413e-04]
entropy correction =  -0.03867785394601892
cycle= 6 E= -11.8014432754715  delta_E= -0.00607  |g|= 0.0228  |ddm|= 0.198
HOMO:  -0.12677546759590133 LUMO:  -0.11936495769494458
Fermi energy:      -0.1230613841
[2.0000e+00 2.0000e+00 2.0000e+00 2.0000e+00 2.0000e+00 2.0000e+00
 1.4704e+00 1.3552e+00 1.3552e+00 6.4632e-01 5.2650e-01 5.2650e-01
 9.6391e-02 1.1915e-02 4.9217e-03 4.9217e-03 8.1653e-04 8.1652e-04]
entropy correction =  -0.03888840177864626
cycle= 7 E= -11.8019012527964  delta_E= -0.000458  |g|= 0.00207  |ddm|= 0.0587
HOMO:  -0.1266973068132871 LUMO:  -0.11924860535346121
Fermi energy:      -0.1230408059
[2.0000e+00 2.0000e+00 2.0000e+00 2.0000e+00 2.0000e+00 2.0000e+00
 1.4830e+00 1.3510e+00 1.3502e+00 6.3797e-01 5.2959e-01 5.2914e-01
 9.5850e-02 1.1777e-02 4.9342e-03 4.9194e-03 8.1880e-04 8.1842e-04]
entropy correction =  -0.03884443692547001
cycle= 8 E= -11.8013312631337  delta_E= 0.00057  |g|= 0.0238  |ddm|= 0.0395
HOMO:  -0.1266775909449337 LUMO:  -0.11924383401252059
Fermi energy:      -0.1230354731
[2.0000e+00 2.0000e+00 2.0000e+00 2.0000e+00 2.0000e+00 2.0000e+00
 1.4841e+00 1.3490e+00 1.3489e+00 6.3802e-01 5.3055e-01 5.3046e-01
 9.5760e-02 1.1727e-02 4.9333e-03 4.9317e-03 8.2037e-04 8.2014e-04]
entropy correction =  -0.03886046705955787
cycle= 9 E= -11.8019078466435  delta_E= -0.000577  |g|= 0.000302  |ddm|= 0.0359
HOMO:  -0.12669363082027757 LUMO:  -0.11926864575351619
Fermi energy:      -0.1230411112
[2.0000e+00 2.0000e+00 2.0000e+00 2.0000e+00 2.0000e+00 2.0000e+00
 1.4816e+00 1.3501e+00 1.3498e+00 6.3969e-01 5.3013e-01 5.2968e-01
 9.5716e-02 1.1726e-02 4.9321e-03 4.9237e-03 8.2019e-04 8.1897e-04]
entropy correction =  -0.038864995616503306
cycle= 10 E= -11.8019079509527  delta_E= -1.04e-07  |g|= 0.000201  |ddm|= 0.00185
HOMO:  -0.1266951484830242 LUMO:  -0.11926920483529534
Fermi energy:      -0.1230418609
[2.0000e+00 2.0000e+00 2.0000e+00 2.0000e+00 2.0000e+00 2.0000e+00
 1.4817e+00 1.3500e+00 1.3499e+00 6.3967e-01 5.3000e-01 5.2982e-01
 9.5716e-02 1.1726e-02 4.9297e-03 4.9263e-03 8.1985e-04 8.1936e-04]
entropy correction =  -0.038864974137944645
cycle= 11 E= -11.8019079893485  delta_E= -3.84e-08  |g|= 8.14e-05  |ddm|= 0.000615
HOMO:  -0.12669614410174776 LUMO:  -0.11926913191516521
Fermi energy:      -0.1230430071
[2.0000e+00 2.0000e+00 2.0000e+00 2.0000e+00 2.0000e+00 2.0000e+00
 1.4818e+00 1.3499e+00 1.3499e+00 6.3956e-01 5.2995e-01 5.2995e-01
 9.5720e-02 1.1726e-02 4.9288e-03 4.9287e-03 8.1975e-04 8.1975e-04]
entropy correction =  -0.038864845928010684
cycle= 12 E= -11.8019079952301  delta_E= -5.88e-09  |g|= 4.46e-05  |ddm|= 0.000223
HOMO:  -0.12669610239904938 LUMO:  -0.11926908486252841
Fermi energy:      -0.1230429652
[2.0000e+00 2.0000e+00 2.0000e+00 2.0000e+00 2.0000e+00 2.0000e+00
 1.4818e+00 1.3499e+00 1.3499e+00 6.3956e-01 5.2995e-01 5.2995e-01
 9.5720e-02 1.1726e-02 4.9288e-03 4.9287e-03 8.1975e-04 8.1975e-04]
entropy correction =  -0.03886484555956198
cycle= 13 E= -11.8019079972258  delta_E= -2e-09  |g|= 5.59e-06  |ddm|= 7.43e-05
HOMO:  -0.1266953868477425 LUMO:  -0.11926837962063784
Fermi energy:      -0.1230422203
[2.0000e+00 2.0000e+00 2.0000e+00 2.0000e+00 2.0000e+00 2.0000e+00
 1.4818e+00 1.3499e+00 1.3499e+00 6.3957e-01 5.2995e-01 5.2995e-01
 9.5720e-02 1.1726e-02 4.9287e-03 4.9287e-03 8.1975e-04 8.1975e-04]
entropy correction =  -0.03886485643973486
cycle= 14 E= -11.8019079972537  delta_E= -2.8e-11  |g|= 8.76e-07  |ddm|= 1.24e-05
HOMO:  -0.1266955927670567 LUMO:  -0.11926858506538776
Fermi energy:      -0.1230424432
[2.0000e+00 2.0000e+00 2.0000e+00 2.0000e+00 2.0000e+00 2.0000e+00
 1.4818e+00 1.3499e+00 1.3499e+00 6.3956e-01 5.2995e-01 5.2995e-01
 9.5720e-02 1.1726e-02 4.9287e-03 4.9287e-03 8.1975e-04 8.1975e-04]
entropy correction =  -0.03886484463649838
Extra cycle  E= -11.8019079972472  delta_E= 6.52e-12  |g|= 2.7e-06  |ddm|= 6.41e-06
degenerate subspace detected:
nsub = 29
subspace 1:
2, 3, 4, 
subspace 2:
5, 6, 
subspace 3:
8, 9, 10, 
subspace 4:
11, 12, 13, 
subspace 5:
14, 15, 16, 
subspace 6:
17, 18, 
subspace 7:
20, 21, 
subspace 8:
23, 24, 25, 26, 27, 
subspace 9:
29, 30, 
subspace 10:
32, 33, 34, 
subspace 11:
36, 37, 
subspace 12:
39, 40, 
subspace 13:
41, 42, 
subspace 14:
46, 47, 
subspace 15:
49, 50, 
subspace 16:
52, 53, 
subspace 17:
54, 55, 56, 57, 
subspace 18:
59, 60, 
subspace 19:
61, 62, 
subspace 20:
63, 64, 65, 
subspace 21:
69, 70, 
subspace 22:
71, 72, 
subspace 23:
75, 76, 
subspace 24:
77, 78, 
subspace 25:
80, 81, 82, 83, 
subspace 26:
87, 88, 
subspace 27:
89, 90, 
subspace 28:
92, 93, 
subspace 29:
94, 95, 

 Adding contributions from fluctuation of occupation numbers.
degenerate subspace detected:
nsub = 31
subspace 1:
2, 3, 
subspace 2:
4, 5, 
subspace 3:
8, 9, 
subspace 4:
11, 12, 
subspace 5:
15, 16, 
subspace 6:
17, 18, 
subspace 7:
19, 20, 21, 22, 23, 
subspace 8:
27, 28, 
subspace 9:
30, 31, 
subspace 10:
33, 34, 
subspace 11:
35, 36, 
subspace 12:
37, 38, 
subspace 13:
39, 40, 41, 42, 
subspace 14:
45, 46, 
subspace 15:
47, 48, 49, 
subspace 16:
50, 51, 52, 
subspace 17:
53, 54, 
subspace 18:
57, 58, 
subspace 19:
60, 61, 
subspace 20:
62, 63, 
subspace 21:
64, 65, 
subspace 22:
68, 69, 70, 
subspace 23:
72, 73, 
subspace 24:
74, 75, 76, 
subspace 25:
77, 78, 
subspace 26:
81, 82, 
subspace 27:
83, 84, 
subspace 28:
86, 87, 
subspace 29:
88, 89, 
subspace 30:
93, 94, 
subspace 31:
95, 96, 

 Adding contributions from fluctuation of occupation numbers.
entropy correction =  -0.03886484463649838
2-norm (grad),       max(grad):
2.5499629513599587 ,  0.24966132615881534
time of hessian construction : 17.200  (cpu),  0.433  (wall) 
time of hessian construction : 21.830  (cpu),  0.551  (wall) 
f =  3.251155526654195
|umat| =  0.009816789631735743
rks_ao.ne_frozen =  0
Set gradient conv threshold to 3.16228e-05
Initial guess from hcore.
HOMO:  -3.4772662574122073 LUMO:  -3.240755749822136
Fermi energy:      -3.3592242652
[2. 2. 2. 2. 2. 2. 2. 2. 2.]
tot grids = 190200
init E= -8.79510565868419
HOMO:  0.04302238364636051 LUMO:  0.049200926075663405
Fermi energy:       0.0451443013
[2.0000e+00 2.0000e+00 2.0000e+00 2.0000e+00 2.0000e+00 2.0000e+00
 1.7548e+00 1.7548e+00 1.2091e+00 6.1522e-01 6.1522e-01 2.9118e-02
 1.7072e-02 2.5695e-03 1.0107e-03 1.0107e-03 1.0587e-04]
entropy correction =  -0.02794472446717996
cycle= 1 E= -5.66536574562078  delta_E= 3.13  |g|= 3.26  |ddm|=   12
HOMO:  -1.0339069168001478 LUMO:  -0.8179761129571812
Fermi energy:      -0.9256630191
[2. 2. 2. 2. 2. 2. 2. 2. 2.]
entropy correction =  -5.313538991689093e-10
cycle= 2 E= -9.21052729590514  delta_E= -3.55  |g|= 1.67  |ddm|= 11.7
HOMO:  -0.20820534569769156 LUMO:  -0.18483316996889806
Fermi energy:      -0.1936610283
[2.0000e+00 2.0000e+00 2.0000e+00 2.0000e+00 2.0000e+00 2.0000e+00
 1.9130e+00 1.8966e+00 1.8966e+00 2.9219e-01 6.4011e-04 6.4011e-04
 4.4569e-04]
entropy correction =  -0.010098267045652252
cycle= 3 E= -11.7386858096911  delta_E= -2.53  |g|= 0.576  |ddm|= 8.64
HOMO:  -0.08588821216365237 LUMO:  -0.08463446591398921
Fermi energy:      -0.0818066780
[2.0000e+00 2.0000e+00 2.0000e+00 2.0000e+00 2.0000e+00 2.0000e+00
 1.9455e+00 1.3869e+00 1.3869e+00 1.2755e+00 1.7976e-03 1.7111e-03
 1.7111e-03]
entropy correction =  -0.020333989708024785
cycle= 4 E= -11.7644258627976  delta_E= -0.0257  |g|= 0.79  |ddm|= 1.55
HOMO:  -0.1041950371868093 LUMO:  -0.10343931553349503
Fermi energy:      -0.1002470356
[2.0000e+00 2.0000e+00 2.0000e+00 2.0000e+00 2.0000e+00 2.0000e+00
 1.9373e+00 1.3755e+00 1.3755e+00 1.3088e+00 9.9308e-04 9.4744e-04
 9.4744e-04]
entropy correction =  -0.02038341656382845
cycle= 5 E= -11.8816653638283  delta_E= -0.117  |g|= 0.61  |ddm|= 0.386
HOMO:  -0.1594601205135447 LUMO:  -0.15857906195711852
Fermi energy:      -0.1552974649
[2.0000e+00 2.0000e+00 2.0000e+00 2.0000e+00 2.0000e+00 2.0000e+00
 1.8949e+00 1.3938e+00 1.3938e+00 1.3169e+00 2.4919e-04 2.4143e-04
 2.4143e-04]
entropy correction =  -0.02078954699206313
cycle= 6 E= -12.0306823242745  delta_E= -0.149  |g|= 0.12  |ddm|= 0.978
HOMO:  -0.1725849395987541 LUMO:  -0.17258493879814737
Fermi energy:      -0.1688974034
[2.0000e+00 2.0000e+00 2.0000e+00 2.0000e+00 2.0000e+00 2.0000e+00
 1.8544e+00 1.4394e+00 1.3529e+00 1.3529e+00 1.5305e-04 1.5305e-04
 1.4267e-04]
entropy correction =  -0.021159023393664943
cycle= 7 E= -12.0380612257491  delta_E= -0.00738  |g|= 0.0241  |ddm|= 0.274
HOMO:  -0.17554884272892546 LUMO:  -0.1754471879422767
Fermi energy:      -0.1714512600
[2.0000e+00 2.0000e+00 2.0000e+00 2.0000e+00 2.0000e+00 2.0000e+00
 1.8435e+00 1.3883e+00 1.3883e+00 1.3796e+00 1.3812e-04 1.3812e-04
 1.3609e-04]
entropy correction =  -0.021279018043699926
cycle= 8 E= -12.0386607353127  delta_E= -0.0006  |g|= 0.0039  |ddm|= 0.0922
HOMO:  -0.17506122550444927 LUMO:  -0.17499855445418283
Fermi energy:      -0.1710030142
[2.0000e+00 2.0000e+00 2.0000e+00 2.0000e+00 2.0000e+00 2.0000e+00
 1.8502e+00 1.3849e+00 1.3849e+00 1.3796e+00 1.4494e-04 1.4494e-04
 1.4285e-04]
entropy correction =  -0.02122373645393838
cycle= 9 E= -12.0386714972974  delta_E= -1.08e-05  |g|= 0.000195  |ddm|= 0.0119
HOMO:  -0.1750666713379969 LUMO:  -0.17500832973904626
Fermi energy:      -0.1710083806
[2.0000e+00 2.0000e+00 2.0000e+00 2.0000e+00 2.0000e+00 2.0000e+00
 1.8499e+00 1.3849e+00 1.3849e+00 1.3799e+00 1.4466e-04 1.4466e-04
 1.4252e-04]
entropy correction =  -0.0212270377328392
cycle= 10 E= -12.0386713912875  delta_E= 1.06e-07  |g|= 0.000491  |ddm|= 0.000987
HOMO:  -0.17507225720769165 LUMO:  -0.17501451172561247
Fermi energy:      -0.1710138367
[2.0000e+00 2.0000e+00 2.0000e+00 2.0000e+00 2.0000e+00 2.0000e+00
 1.8498e+00 1.3849e+00 1.3849e+00 1.3800e+00 1.4459e-04 1.4459e-04
 1.4244e-04]
entropy correction =  -0.021227743920514994
cycle= 11 E= -12.0386715350384  delta_E= -1.44e-07  |g|= 3.91e-06  |ddm|= 0.00071
HOMO:  -0.17507234237291802 LUMO:  -0.17501487922284173
Fermi energy:      -0.1710140174
[2.0000e+00 2.0000e+00 2.0000e+00 2.0000e+00 2.0000e+00 2.0000e+00
 1.8498e+00 1.3849e+00 1.3849e+00 1.3800e+00 1.4459e-04 1.4459e-04
 1.4244e-04]
entropy correction =  -0.02122774344509326
cycle= 12 E= -12.0386715350523  delta_E= -1.38e-11  |g|= 9.68e-07  |ddm|= 1.48e-05
HOMO:  -0.1750724339396411 LUMO:  -0.17501487680525013
Fermi energy:      -0.1710140786
[2.0000e+00 2.0000e+00 2.0000e+00 2.0000e+00 2.0000e+00 2.0000e+00
 1.8498e+00 1.3849e+00 1.3849e+00 1.3800e+00 1.4459e-04 1.4459e-04
 1.4244e-04]
entropy correction =  -0.021227743603812278
Extra cycle  E= -12.0386715350416  delta_E= 1.06e-11  |g|= 4.29e-06  |ddm|= 8.99e-06
entropy correction =  -0.021227743603812278
rks_ao.ne_frozen =  0
Set gradient conv threshold to 3.16228e-05
Initial guess from hcore.
HOMO:  -2.4345768926942073 LUMO:  -2.425895660713995
Fermi energy:      -2.4305914326
[2.     2.     2.     2.     2.     2.     2.     1.3787 1.3787 0.5621
 0.2829 0.2829 0.1147]
tot grids = 190200
init E= -8.83977096979272
HOMO:  0.017669920272426094 LUMO:  0.01904570992585151
Fermi energy:       0.0188324110
[2.0000e+00 2.0000e+00 2.0000e+00 2.0000e+00 2.0000e+00 2.0000e+00
 1.1623e+00 1.1623e+00 1.1157e+00 9.7867e-01 9.7867e-01 1.6511e-01
 1.5466e-01 1.5466e-01 1.0415e-01 1.2786e-02 3.9890e-03 3.9890e-03
 9.1097e-04 9.1097e-04 5.5779e-04 2.0555e-04 2.0555e-04 1.1370e-04]
entropy correction =  -0.04546698542028696
cycle= 1 E= -9.99166570110963  delta_E= -1.15  |g|=  1.6  |ddm|= 11.6
HOMO:  -0.34566947148260824 LUMO:  -0.3367779628244406
Fermi energy:      -0.3402004479
[2.0000e+00 2.0000e+00 2.0000e+00 2.0000e+00 2.0000e+00 2.0000e+00
 1.9962e+00 1.4982e+00 1.4982e+00 6.7052e-01 2.9012e-01 2.3300e-02
 2.3300e-02 1.6773e-04]
entropy correction =  -0.02320242890188408
cycle= 2 E= -9.68059758215479  delta_E= 0.311  |g|= 2.02  |ddm|= 10.9
HOMO:  -0.19647524365415422 LUMO:  -0.17857523918535356
Fermi energy:      -0.1872860499
[2.0000e+00 2.0000e+00 2.0000e+00 2.0000e+00 2.0000e+00 2.0000e+00
 1.7716e+00 1.7254e+00 1.7254e+00 2.9808e-01 2.9808e-01 9.2500e-02
 7.0843e-02 1.6869e-02 3.8079e-04 3.8079e-04 2.6001e-04 2.6001e-04]
entropy correction =  -0.02392797030563825
cycle= 3 E= -11.6600190298034  delta_E= -1.98  |g|= 0.391  |ddm|= 4.16
HOMO:  -0.141038043739253 LUMO:  -0.13604631574227125
Fermi energy:      -0.1379984352
[2.0000e+00 2.0000e+00 2.0000e+00 2.0000e+00 2.0000e+00 2.0000e+00
 1.4878e+00 1.2949e+00 1.2949e+00 8.0723e-01 4.9238e-01 4.9238e-01
 1.0847e-01 1.3411e-02 3.6960e-03 3.6960e-03 5.2326e-04 5.2325e-04]
entropy correction =  -0.03940524015686064
cycle= 4 E= -11.7897091363384  delta_E= -0.13  |g|= 0.166  |ddm|= 2.96
HOMO:  -0.13580001577846443 LUMO:  -0.13139671362252167
Fermi energy:      -0.1328661876
[2.0000e+00 2.0000e+00 2.0000e+00 2.0000e+00 2.0000e+00 2.0000e+00
 1.4929e+00 1.2853e+00 1.2852e+00 8.5410e-01 4.8215e-01 4.8214e-01
 9.8452e-02 1.0894e-02 3.8441e-03 3.8440e-03 5.9532e-04 5.9530e-04]
entropy correction =  -0.03920566065702104
cycle= 5 E= -11.7997703442749  delta_E= -0.0101  |g|= 0.108  |ddm|= 0.144
HOMO:  -0.12633194549696278 LUMO:  -0.12163281907518043
Fermi energy:      -0.1235093353
[2.0000e+00 2.0000e+00 2.0000e+00 2.0000e+00 2.0000e+00 2.0000e+00
 1.4888e+00 1.2757e+00 1.2750e+00 8.1452e-01 5.1718e-01 5.1691e-01
 9.0103e-02 1.1392e-02 4.4727e-03 4.4656e-03 7.3199e-04 7.3166e-04]
entropy correction =  -0.03953945092011278
cycle= 6 E= -11.8051136779864  delta_E= -0.00534  |g|= 0.0284  |ddm|= 0.256
HOMO:  -0.12607699943553138 LUMO:  -0.12056772378691616
Fermi energy:      -0.1228751397
[2.0000e+00 2.0000e+00 2.0000e+00 2.0000e+00 2.0000e+00 2.0000e+00
 1.4823e+00 1.3637e+00 1.3097e+00 7.7327e-01 4.8970e-01 4.6888e-01
 9.0090e-02 1.2275e-02 4.6388e-03 4.0869e-03 7.0991e-04 6.9586e-04]
entropy correction =  -0.038686982474995045
cycle= 7 E= -11.7784237904343  delta_E= 0.0267  |g|= 0.177  |ddm|= 0.337
HOMO:  -0.12538430769290784 LUMO:  -0.12098378304187644
Fermi energy:      -0.1224192019
[2.0000e+00 2.0000e+00 2.0000e+00 2.0000e+00 2.0000e+00 2.0000e+00
 1.4389e+00 1.2913e+00 1.2881e+00 8.5744e-01 5.0919e-01 5.0381e-01
 8.9582e-02 1.1034e-02 4.5918e-03 4.5027e-03 7.7158e-04 7.5883e-04]
entropy correction =  -0.03965531605512651
cycle= 8 E= -11.8057587383092  delta_E= -0.0273  |g|= 0.00483  |ddm|= 0.312
HOMO:  -0.1253144964503145 LUMO:  -0.12094177814059424
Fermi energy:      -0.1224463979
[2.0000e+00 2.0000e+00 2.0000e+00 2.0000e+00 2.0000e+00 2.0000e+00
 1.4498e+00 1.2904e+00 1.2792e+00 8.5066e-01 5.1864e-01 5.0048e-01
 8.9177e-02 1.0903e-02 4.7160e-03 4.3782e-03 7.9171e-04 7.4190e-04]
entropy correction =  -0.0396440566488158
cycle= 9 E= -11.8056951195092  delta_E= 6.36e-05  |g|= 0.0089  |ddm|= 0.0332
HOMO:  -0.12536630633160323 LUMO:  -0.12092799633591834
Fermi energy:      -0.1224522828
[2.0000e+00 2.0000e+00 2.0000e+00 2.0000e+00 2.0000e+00 2.0000e+00
 1.4516e+00 1.2848e+00 1.2834e+00 8.4874e-01 5.1154e-01 5.0934e-01
 8.9034e-02 1.0876e-02 4.5657e-03 4.5258e-03 7.6990e-04 7.6403e-04]
entropy correction =  -0.039644665991214356
cycle= 10 E= -11.8057810513322  delta_E= -8.59e-05  |g|= 0.00112  |ddm|= 0.0214
HOMO:  -0.12540754592457598 LUMO:  -0.12096751905756488
Fermi energy:      -0.1224809158
[2.0000e+00 2.0000e+00 2.0000e+00 2.0000e+00 2.0000e+00 2.0000e+00
 1.4502e+00 1.2849e+00 1.2846e+00 8.4981e-01 5.1029e-01 5.0975e-01
 8.8990e-02 1.0872e-02 4.5445e-03 4.5351e-03 7.6650e-04 7.6515e-04]
entropy correction =  -0.03964382666656712
cycle= 11 E= -11.8057695216433  delta_E= 1.15e-05  |g|= 0.00384  |ddm|= 0.00775
HOMO:  -0.12542240136889984 LUMO:  -0.12098446379632757
Fermi energy:      -0.1224919081
[2.0000e+00 2.0000e+00 2.0000e+00 2.0000e+00 2.0000e+00 2.0000e+00
 1.4495e+00 1.2850e+00 1.2849e+00 8.5039e-01 5.0993e-01 5.0976e-01
 8.8975e-02 1.0871e-02 4.5394e-03 4.5361e-03 7.6568e-04 7.6519e-04]
entropy correction =  -0.039644412945802586
cycle= 12 E= -11.8057824577334  delta_E= -1.29e-05  |g|= 0.000114  |ddm|= 0.00677
HOMO:  -0.12541958015955776 LUMO:  -0.12098196190524893
Fermi energy:      -0.1224902105
[2.0000e+00 2.0000e+00 2.0000e+00 2.0000e+00 2.0000e+00 2.0000e+00
 1.4495e+00 1.2851e+00 1.2848e+00 8.5031e-01 5.1007e-01 5.0966e-01
 8.8984e-02 1.0872e-02 4.5421e-03 4.5349e-03 7.6611e-04 7.6503e-04]
entropy correction =  -0.039644496611450086
cycle= 13 E= -11.8057824213301  delta_E= 3.64e-08  |g|= 0.000215  |ddm|= 0.000817
HOMO:  -0.12542205354476668 LUMO:  -0.12098338842867597
Fermi energy:      -0.1224916400
[2.0000e+00 2.0000e+00 2.0000e+00 2.0000e+00 2.0000e+00 2.0000e+00
 1.4495e+00 1.2850e+00 1.2849e+00 8.5031e-01 5.0992e-01 5.0982e-01
 8.8985e-02 1.0871e-02 4.5395e-03 4.5378e-03 7.6574e-04 7.6549e-04]
entropy correction =  -0.039644547667075876
cycle= 14 E= -11.8057824667793  delta_E= -4.54e-08  |g|= 6.41e-05  |ddm|= 0.00065
HOMO:  -0.12542183515235827 LUMO:  -0.12098296090076183
Fermi energy:      -0.1224912323
[2.0000e+00 2.0000e+00 2.0000e+00 2.0000e+00 2.0000e+00 2.0000e+00
 1.4496e+00 1.2850e+00 1.2849e+00 8.5031e-01 5.0988e-01 5.0986e-01
 8.8985e-02 1.0871e-02 4.5389e-03 4.5385e-03 7.6566e-04 7.6560e-04]
entropy correction =  -0.03964454428795366
cycle= 15 E= -11.8057824703309  delta_E= -3.55e-09  |g|= 2.57e-05  |ddm|= 0.000173
HOMO:  -0.12542194973585888 LUMO:  -0.12098288710087621
Fermi energy:      -0.1224913118
[2.0000e+00 2.0000e+00 2.0000e+00 2.0000e+00 2.0000e+00 2.0000e+00
 1.4496e+00 1.2850e+00 1.2850e+00 8.5029e-01 5.0988e-01 5.0988e-01
 8.8986e-02 1.0871e-02 4.5387e-03 4.5387e-03 7.6563e-04 7.6563e-04]
entropy correction =  -0.03964455085995461
cycle= 16 E= -11.805782470644  delta_E= -3.13e-10  |g|= 1.89e-05  |ddm|= 7.73e-05
HOMO:  -0.1254221142513717 LUMO:  -0.1209832115810634
Fermi energy:      -0.1224913254
[2.0000e+00 2.0000e+00 2.0000e+00 2.0000e+00 2.0000e+00 2.0000e+00
 1.4495e+00 1.2850e+00 1.2850e+00 8.5032e-01 5.0987e-01 5.0986e-01
 8.8985e-02 1.0871e-02 4.5388e-03 4.5386e-03 7.6563e-04 7.6560e-04]
entropy correction =  -0.039644569823243346
Extra cycle  E= -11.8057823748155  delta_E= 9.58e-08  |g|= 0.000331  |ddm|= 0.000604
degenerate subspace detected:
nsub = 32
subspace 1:
2, 3, 4, 
subspace 2:
5, 6, 
subspace 3:
8, 9, 10, 
subspace 4:
11, 12, 13, 
subspace 5:
14, 15, 16, 
subspace 6:
17, 18, 
subspace 7:
20, 21, 
subspace 8:
23, 24, 25, 
subspace 9:
26, 27, 
subspace 10:
29, 30, 
subspace 11:
32, 33, 34, 
subspace 12:
35, 36, 37, 
subspace 13:
40, 41, 
subspace 14:
42, 43, 
subspace 15:
45, 46, 
subspace 16:
48, 49, 
subspace 17:
52, 53, 
subspace 18:
54, 55, 
subspace 19:
57, 58, 
subspace 20:
59, 60, 
subspace 21:
61, 62, 
subspace 22:
64, 65, 
subspace 23:
69, 70, 
subspace 24:
71, 72, 
subspace 25:
75, 76, 
subspace 26:
77, 78, 
subspace 27:
80, 81, 
subspace 28:
82, 83, 
subspace 29:
87, 88, 
subspace 30:
89, 90, 
subspace 31:
92, 93, 
subspace 32:
94, 95, 

 Adding contributions from fluctuation of occupation numbers.
degenerate subspace detected:
nsub = 30
subspace 1:
2, 3, 
subspace 2:
4, 5, 
subspace 3:
8, 9, 
subspace 4:
11, 12, 
subspace 5:
15, 16, 
subspace 6:
17, 18, 
subspace 7:
19, 20, 21, 22, 23, 
subspace 8:
28, 29, 
subspace 9:
30, 31, 
subspace 10:
32, 33, 
subspace 11:
34, 35, 
subspace 12:
37, 38, 39, 
subspace 13:
41, 42, 
subspace 14:
45, 46, 
subspace 15:
48, 49, 
subspace 16:
51, 52, 
subspace 17:
53, 54, 
subspace 18:
58, 59, 60, 61, 
subspace 19:
62, 63, 
subspace 20:
64, 65, 
subspace 21:
68, 69, 70, 
subspace 22:
72, 73, 
subspace 23:
74, 75, 
subspace 24:
77, 78, 
subspace 25:
81, 82, 
subspace 26:
83, 84, 
subspace 27:
86, 87, 
subspace 28:
88, 89, 
subspace 29:
93, 94, 
subspace 30:
95, 96, 

 Adding contributions from fluctuation of occupation numbers.
entropy correction =  -0.039644569823243346
2-norm (grad),       max(grad):
2.518684258361035 ,  0.18676064963421468
time of hessian construction : 25.120  (cpu),  0.647  (wall) 
time of hessian construction : 31.430  (cpu),  0.809  (wall) 
f =  3.171885196657839
|umat| =  0.003698799020823137
rks_ao.ne_frozen =  0
Set gradient conv threshold to 3.16228e-05
Initial guess from hcore.
HOMO:  -3.4772413857961184 LUMO:  -3.2403596351594275
Fermi energy:      -3.3591383585
[2. 2. 2. 2. 2. 2. 2. 2. 2.]
tot grids = 190200
init E= -8.79998399355927
HOMO:  0.04294327073681145 LUMO:  0.04833253546126858
Fermi energy:       0.0448263376
[2.0000e+00 2.0000e+00 2.0000e+00 2.0000e+00 2.0000e+00 2.0000e+00
 1.7200e+00 1.7200e+00 1.1861e+00 6.6307e-01 6.6307e-01 2.7104e-02
 1.5882e-02 2.8134e-03 9.2629e-04 9.2629e-04]
entropy correction =  -0.02893955499602125
cycle= 1 E= -5.64684060028218  delta_E= 3.15  |g|= 3.23  |ddm|=   12
HOMO:  -1.035768445590155 LUMO:  -0.8198363479126567
Fermi energy:      -0.9276012450
[2. 2. 2. 2. 2. 2. 2. 2. 2.]
entropy correction =  -5.20771901673292e-10
cycle= 2 E= -9.21417216109592  delta_E= -3.57  |g|= 1.67  |ddm|= 11.6
HOMO:  -0.20924902886113042 LUMO:  -0.1862076161323415
Fermi energy:      -0.1948743075
[2.0000e+00 2.0000e+00 2.0000e+00 2.0000e+00 2.0000e+00 2.0000e+00
 1.9117e+00 1.8932e+00 1.8932e+00 3.0032e-01 5.9750e-04 5.9750e-04
 4.2779e-04]
entropy correction =  -0.010282558395234943
cycle= 3 E= -11.744439626084  delta_E= -2.53  |g|= 0.566  |ddm|= 8.62
HOMO:  -0.08592859658268154 LUMO:  -0.08475578886858849
Fermi energy:      -0.0818955679
[2.0000e+00 2.0000e+00 2.0000e+00 2.0000e+00 2.0000e+00 2.0000e+00
 1.9508e+00 1.3828e+00 1.3828e+00 1.2785e+00 1.8058e-03 1.7085e-03
 1.7085e-03]
entropy correction =  -0.020263609110551375
cycle= 4 E= -11.7692256467533  delta_E= -0.0248  |g|= 0.785  |ddm|= 1.57
HOMO:  -0.10408504035378995 LUMO:  -0.1033779064837002
Fermi energy:      -0.1001716996
[2.0000e+00 2.0000e+00 2.0000e+00 2.0000e+00 2.0000e+00 2.0000e+00
 1.9420e+00 1.3725e+00 1.3725e+00 1.3101e+00 1.0020e-03 9.4962e-04
 9.4962e-04]
entropy correction =  -0.020321943473354098
cycle= 5 E= -11.8837388988856  delta_E= -0.115  |g|= 0.607  |ddm|= 0.372
HOMO:  -0.15908886128915392 LUMO:  -0.15822364490388682
Fermi energy:      -0.1549492029
[2.0000e+00 2.0000e+00 2.0000e+00 2.0000e+00 2.0000e+00 2.0000e+00
 1.8994e+00 1.3918e+00 1.3918e+00 1.3162e+00 2.5172e-04 2.4281e-04
 2.4281e-04]
entropy correction =  -0.020741955318919356
cycle= 6 E= -12.0306654423756  delta_E= -0.147  |g|= 0.118  |ddm|= 0.959
HOMO:  -0.1720965772568259 LUMO:  -0.17209657690871374
Fermi energy:      -0.1684255805
[2.0000e+00 2.0000e+00 2.0000e+00 2.0000e+00 2.0000e+00 2.0000e+00
 1.8588e+00 1.4379e+00 1.3515e+00 1.3515e+00 1.5391e-04 1.5391e-04
 1.4454e-04]
entropy correction =  -0.021120174782054395
cycle= 7 E= -12.0378622154951  delta_E= -0.0072  |g|= 0.0237  |ddm|= 0.27
HOMO:  -0.17505872979081968 LUMO:  -0.17495227958630424
Fermi energy:      -0.1709802220
[2.0000e+00 2.0000e+00 2.0000e+00 2.0000e+00 2.0000e+00 2.0000e+00
 1.8488e+00 1.3866e+00 1.3866e+00 1.3776e+00 1.3900e-04 1.3900e-04
 1.3770e-04]
entropy correction =  -0.021234700822135726
cycle= 8 E= -12.03843744361  delta_E= -0.000575  |g|= 0.00406  |ddm|= 0.0896
HOMO:  -0.1745487755407803 LUMO:  -0.17448315097057523
Fermi energy:      -0.1705096136
[2.0000e+00 2.0000e+00 2.0000e+00 2.0000e+00 2.0000e+00 2.0000e+00
 1.8554e+00 1.3833e+00 1.3833e+00 1.3777e+00 1.4592e-04 1.4592e-04
 1.4457e-04]
entropy correction =  -0.02117940331274707
cycle= 9 E= -12.0384489475569  delta_E= -1.15e-05  |g|= 0.000145  |ddm|= 0.0121
HOMO:  -0.17455780009964664 LUMO:  -0.17449702118170132
Fermi energy:      -0.1705185895
[2.0000e+00 2.0000e+00 2.0000e+00 2.0000e+00 2.0000e+00 2.0000e+00
 1.8549e+00 1.3833e+00 1.3833e+00 1.3781e+00 1.4560e-04 1.4560e-04
 1.4419e-04]
entropy correction =  -0.021183101993518916
cycle= 10 E= -12.0384489515366  delta_E= -3.98e-09  |g|= 0.000192  |ddm|= 0.000625
HOMO:  -0.1745558245463044 LUMO:  -0.17449515019683084
Fermi energy:      -0.1705166523
[2.0000e+00 2.0000e+00 2.0000e+00 2.0000e+00 2.0000e+00 2.0000e+00
 1.8549e+00 1.3833e+00 1.3833e+00 1.3781e+00 1.4560e-04 1.4560e-04
 1.4419e-04]
entropy correction =  -0.02118309541382554
cycle= 11 E= -12.0384489735336  delta_E= -2.2e-08  |g|= 6.08e-06  |ddm|= 0.000278
HOMO:  -0.1745562150631638 LUMO:  -0.1744957919261886
Fermi energy:      -0.1705171185
[2.0000e+00 2.0000e+00 2.0000e+00 2.0000e+00 2.0000e+00 2.0000e+00
 1.8549e+00 1.3833e+00 1.3833e+00 1.3781e+00 1.4560e-04 1.4560e-04
 1.4419e-04]
entropy correction =  -0.021183114824361443
cycle= 12 E= -12.0384489735596  delta_E= -2.6e-11  |g|= 5.42e-07  |ddm|= 1.67e-05
HOMO:  -0.17455628690501196 LUMO:  -0.1744957763040118
Fermi energy:      -0.1705171620
[2.0000e+00 2.0000e+00 2.0000e+00 2.0000e+00 2.0000e+00 2.0000e+00
 1.8549e+00 1.3833e+00 1.3833e+00 1.3781e+00 1.4560e-04 1.4560e-04
 1.4419e-04]
entropy correction =  -0.02118311392588939
Extra cycle  E= -12.0384489735587  delta_E= 9.02e-13  |g|= 1.2e-06  |ddm|= 5.32e-06
entropy correction =  -0.02118311392588939
rks_ao.ne_frozen =  0
Set gradient conv threshold to 3.16228e-05
Initial guess from hcore.
HOMO:  -2.4354229068376476 LUMO:  -2.422465108905831
Fermi energy:      -2.4297161889
[2.     2.     2.     2.     2.     2.     2.     1.5159 1.5159 0.3799
 0.2318 0.2318 0.1247]
tot grids = 190200
init E= -8.82165143947879
HOMO:  0.017053656344591238 LUMO:  0.01839585985514349
Fermi energy:       0.0176259605
[2.0000e+00 2.0000e+00 2.0000e+00 2.0000e+00 2.0000e+00 2.0000e+00
 1.7232e+00 1.0572e+00 1.0572e+00 9.2316e-01 9.2316e-01 1.2126e-01
 7.7608e-02 5.0247e-02 5.0247e-02 9.5408e-03 2.7819e-03 2.7819e-03
 4.9433e-04 4.9433e-04 4.1735e-04 1.1622e-04 1.1622e-04]
entropy correction =  -0.038525612561236655
cycle= 1 E= -9.96917020553217  delta_E= -1.15  |g|= 1.61  |ddm|= 16.6
HOMO:  -0.34866164529284654 LUMO:  -0.333197487682415
Fermi energy:      -0.3411039344
[2.0000e+00 2.0000e+00 2.0000e+00 2.0000e+00 2.0000e+00 2.0000e+00
 1.9974e+00 1.6386e+00 1.6386e+00 3.4123e-01 3.3702e-01 2.3443e-02
 2.3443e-02 2.5028e-04]
entropy correction =  -0.019939569998596952
cycle= 2 E= -9.60825548925043  delta_E= 0.361  |g|= 2.06  |ddm|= 15.7
HOMO:  -0.19475868957332246 LUMO:  -0.17993654044920968
Fermi energy:      -0.1879310146
[2.0000e+00 2.0000e+00 2.0000e+00 2.0000e+00 2.0000e+00 2.0000e+00
 1.7644e+00 1.7644e+00 1.5933e+00 3.3627e-01 3.3627e-01 1.0352e-01
 8.0237e-02 2.0182e-02 3.8144e-04 3.8144e-04 2.7305e-04 2.7305e-04]
entropy correction =  -0.02570608671440211
cycle= 3 E= -11.6518505659604  delta_E= -2.04  |g|= 0.399  |ddm|=  4.4
HOMO:  -0.14187077489915195 LUMO:  -0.13384117570790433
Fermi energy:      -0.1381586419
[2.0000e+00 2.0000e+00 2.0000e+00 2.0000e+00 2.0000e+00 2.0000e+00
 1.5309e+00 1.3551e+00 1.3551e+00 5.9322e-01 5.1256e-01 5.1256e-01
 1.1710e-01 1.4549e-02 3.9325e-03 3.9325e-03 5.5276e-04 5.5276e-04]
entropy correction =  -0.038479934387641974
cycle= 4 E= -11.7854140072552  delta_E= -0.134  |g|= 0.17  |ddm|= 2.05
HOMO:  -0.1366255314349196 LUMO:  -0.1293689158068206
Fermi energy:      -0.1330430548
[2.0000e+00 2.0000e+00 2.0000e+00 2.0000e+00 2.0000e+00 2.0000e+00
 1.5311e+00 1.3437e+00 1.3437e+00 6.4827e-01 5.0269e-01 5.0268e-01
 1.0652e-01 1.1830e-02 4.1366e-03 4.1366e-03 6.3626e-04 6.3625e-04]
entropy correction =  -0.0384770836028265
cycle= 5 E= -11.7958687287973  delta_E= -0.0105  |g|= 0.107  |ddm|= 0.144
HOMO:  -0.12716461364348935 LUMO:  -0.11991343041868245
Fermi energy:      -0.1237391872
[2.0000e+00 2.0000e+00 2.0000e+00 2.0000e+00 2.0000e+00 2.0000e+00
 1.5127e+00 1.3298e+00 1.3297e+00 6.3506e-01 5.3629e-01 5.3626e-01
 9.6697e-02 1.2292e-02 4.8103e-03 4.8096e-03 7.8210e-04 7.8204e-04]
entropy correction =  -0.03890450745156332
cycle= 6 E= -11.8017496959614  delta_E= -0.00588  |g|= 0.023  |ddm|= 0.202
HOMO:  -0.1264632099787933 LUMO:  -0.11942028060000813
Fermi energy:      -0.1228467324
[2.0000e+00 2.0000e+00 2.0000e+00 2.0000e+00 2.0000e+00 2.0000e+00
[...]
entropy correction =  -0.0414087641691415
cycle= 12 E= -11.8129402690078  delta_E= -0.00014  |g|= 0.00449  |ddm|= 0.0385
HOMO:  -0.12322894595547598 LUMO:  -0.12230009711985645
Fermi energy:      -0.1216703654
[2.0000e+00 2.0000e+00 2.0000e+00 2.0000e+00 2.0000e+00 2.0000e+00
 1.3385e+00 1.1568e+00 1.1546e+00 1.0629e+00 5.9488e-01 5.9121e-01
 8.1876e-02 9.6477e-03 4.0842e-03 4.0374e-03 6.9348e-04 6.8675e-04]
entropy correction =  -0.04140585216702806
cycle= 13 E= -11.8129505325893  delta_E= -1.03e-05  |g|= 0.00343  |ddm|= 0.0143
HOMO:  -0.12325321770375762 LUMO:  -0.12231617883686838
Fermi energy:      -0.1216825339
[2.0000e+00 2.0000e+00 2.0000e+00 2.0000e+00 2.0000e+00 2.0000e+00
 1.3381e+00 1.1560e+00 1.1558e+00 1.0633e+00 5.9313e-01 5.9269e-01
 8.1843e-02 9.6439e-03 4.0583e-03 4.0559e-03 6.9016e-04 6.8969e-04]
entropy correction =  -0.04140449689090159
cycle= 14 E= -11.812961092259  delta_E= -1.06e-05  |g|= 0.000567  |ddm|= 0.00735
HOMO:  -0.12325092981755849 LUMO:  -0.12231333371705432
Fermi energy:      -0.1216785595
[2.0000e+00 2.0000e+00 2.0000e+00 2.0000e+00 2.0000e+00 2.0000e+00
 1.3379e+00 1.1560e+00 1.1560e+00 1.0634e+00 5.9294e-01 5.9273e-01
 8.1871e-02 9.6474e-03 4.0592e-03 4.0578e-03 6.9018e-04 6.9001e-04]
entropy correction =  -0.04140482028530608
cycle= 15 E= -11.8129613738774  delta_E= -2.82e-07  |g|= 0.000154  |ddm|= 0.0012
HOMO:  -0.12325109492896598 LUMO:  -0.12231305380412501
Fermi energy:      -0.1216786067
[2.0000e+00 2.0000e+00 2.0000e+00 2.0000e+00 2.0000e+00 2.0000e+00
 1.3380e+00 1.1560e+00 1.1560e+00 1.0634e+00 5.9288e-01 5.9282e-01
 8.1870e-02 9.6474e-03 4.0588e-03 4.0583e-03 6.9014e-04 6.9007e-04]
entropy correction =  -0.04140491397272819
cycle= 16 E= -11.8129613976965  delta_E= -2.38e-08  |g|= 2.9e-05  |ddm|= 0.000363
HOMO:  -0.12325071226578814 LUMO:  -0.12231252842551617
Fermi energy:      -0.1216780749
[2.0000e+00 2.0000e+00 2.0000e+00 2.0000e+00 2.0000e+00 2.0000e+00
 1.3379e+00 1.1560e+00 1.1560e+00 1.0634e+00 5.9286e-01 5.9285e-01
 8.1870e-02 9.6474e-03 4.0586e-03 4.0585e-03 6.9013e-04 6.9012e-04]
entropy correction =  -0.04140497152064402
cycle= 17 E= -11.8129613985243  delta_E= -8.28e-10  |g|= 5.6e-06  |ddm|= 7.92e-05
HOMO:  -0.1232510453383715 LUMO:  -0.12231297520549982
Fermi energy:      -0.1216785452
[2.0000e+00 2.0000e+00 2.0000e+00 2.0000e+00 2.0000e+00 2.0000e+00
 1.3379e+00 1.1560e+00 1.1560e+00 1.0634e+00 5.9287e-01 5.9283e-01
 8.1870e-02 9.6472e-03 4.0588e-03 4.0582e-03 6.9016e-04 6.9007e-04]
entropy correction =  -0.04140496294914855
Extra cycle  E= -11.8129613947198  delta_E= 3.8e-09  |g|= 6.29e-05  |ddm|= 0.000137
degenerate subspace detected:
nsub = 31
subspace 1:
2, 3, 
subspace 2:
5, 6, 
subspace 3:
8, 9, 10, 
subspace 4:
11, 12, 13, 
subspace 5:
14, 15, 16, 
subspace 6:
17, 18, 
subspace 7:
22, 23, 24, 25, 
subspace 8:
26, 27, 
subspace 9:
29, 30, 
subspace 10:
33, 34, 
subspace 11:
36, 37, 38, 
subspace 12:
40, 41, 
subspace 13:
42, 43, 
subspace 14:
46, 47, 
subspace 15:
49, 50, 
subspace 16:
52, 53, 
subspace 17:
54, 55, 
subspace 18:
57, 58, 
subspace 19:
59, 60, 
subspace 20:
62, 63, 
subspace 21:
67, 68, 
subspace 22:
69, 70, 
subspace 23:
72, 73, 74, 
subspace 24:
75, 76, 
subspace 25:
78, 79, 
subspace 26:
80, 81, 
subspace 27:
82, 83, 
subspace 28:
87, 88, 
subspace 29:
89, 90, 
subspace 30:
92, 93, 
subspace 31:
94, 95, 

 Adding contributions from fluctuation of occupation numbers.
degenerate subspace detected:
nsub = 31
subspace 1:
2, 3, 
subspace 2:
4, 5, 
subspace 3:
8, 9, 10, 
subspace 4:
11, 12, 
subspace 5:
15, 16, 
subspace 6:
17, 18, 
subspace 7:
19, 20, 21, 22, 23, 
subspace 8:
26, 27, 
subspace 9:
30, 31, 
subspace 10:
32, 33, 
subspace 11:
34, 35, 36, 
subspace 12:
38, 39, 
subspace 13:
41, 42, 
subspace 14:
47, 48, 
subspace 15:
49, 50, 
subspace 16:
51, 52, 
subspace 17:
55, 56, 
subspace 18:
58, 59, 
subspace 19:
60, 61, 
subspace 20:
62, 63, 
subspace 21:
65, 66, 
subspace 22:
68, 69, 
subspace 23:
72, 73, 
subspace 24:
74, 75, 
subspace 25:
78, 79, 
subspace 26:
80, 81, 
subspace 27:
82, 83, 
subspace 28:
86, 87, 
subspace 29:
88, 89, 
subspace 30:
93, 94, 
subspace 31:
95, 96, 

 Adding contributions from fluctuation of occupation numbers.
entropy correction =  -0.04140496294914855
2-norm (grad),       max(grad):
2.2061712234078072 ,  0.1864802785599522
time of hessian construction : 23.750  (cpu),  0.619  (wall) 
time of hessian construction : 27.500  (cpu),  0.727  (wall) 
f =  2.4335957334963503
========================================
 SCF with converged embedding potential 
========================================
rks_ao.ne_frozen =  0
Set gradient conv threshold to 3.16228e-05
tot grids = 190200
init E= -10.6034852379502
HOMO:  -0.09872450316806339 LUMO:  -0.09866058388789957
Fermi energy:      -0.0948652176
[2.0000e+00 2.0000e+00 2.0000e+00 2.0000e+00 2.0000e+00 2.0000e+00
 1.9010e+00 1.3678e+00 1.3678e+00 1.3623e+00 3.6326e-04 3.6326e-04
 3.5899e-04]
entropy correction =  -0.02076471964670446
cycle= 1 E= -11.9801031348878  delta_E= -1.38  |g|= 0.371  |ddm|= 4.54
HOMO:  -0.23735296286146385 LUMO:  -0.23153480713028768
Fermi energy:      -0.2301698546
[2.     2.     2.     2.     1.9996 1.9996 1.6246 1.6246 1.6159 1.1357]
entropy correction =  -0.021428367443919405
cycle= 2 E= -11.917203057867  delta_E= 0.0629  |g|= 0.426  |ddm|= 1.96
HOMO:  -0.17848576525074122 LUMO:  -0.17848575511696904
Fermi energy:      -0.1745161705
[2.0000e+00 2.0000e+00 2.0000e+00 2.0000e+00 2.0000e+00 2.0000e+00
 1.8656e+00 1.3792e+00 1.3773e+00 1.3773e+00 1.8688e-04 1.8688e-04
 1.8596e-04]
entropy correction =  -0.021094034730255104
cycle= 3 E= -12.0377146165782  delta_E= -0.121  |g|= 0.019  |ddm|= 1.22
HOMO:  -0.17487907985024506 LUMO:  -0.17466614800159788
Fermi energy:      -0.1706869499
[2.0000e+00 2.0000e+00 2.0000e+00 2.0000e+00 1.9999e+00 1.9999e+00
 1.8290e+00 1.3963e+00 1.3963e+00 1.3782e+00 1.3909e-04 1.3836e-04
 1.3836e-04]
entropy correction =  -0.02139628304807335
cycle= 4 E= -12.0381393346662  delta_E= -0.000425  |g|= 0.00311  |ddm|= 0.0624
HOMO:  -0.1756155735868729 LUMO:  -0.17561551941633483
Fermi energy:      -0.1715226929
[2.0000e+00 2.0000e+00 2.0000e+00 2.0000e+00 1.9999e+00 1.9999e+00
 1.8316e+00 1.3924e+00 1.3879e+00 1.3879e+00 1.4182e-04 1.4182e-04
 1.4089e-04]
entropy correction =  -0.021377596381849023
cycle= 5 E= -12.0381336668345  delta_E= 5.67e-06  |g|= 0.00416  |ddm|= 0.0182
HOMO:  -0.17573263144937043 LUMO:  -0.17569482375557624
Fermi energy:      -0.1716091477
[2.0000e+00 2.0000e+00 2.0000e+00 2.0000e+00 1.9999e+00 1.9999e+00
 1.8315e+00 1.3905e+00 1.3905e+00 1.3873e+00 1.4168e-04 1.4168e-04
 1.4142e-04]
entropy correction =  -0.02137832909602953
cycle= 6 E= -12.0381407872803  delta_E= -7.12e-06  |g|= 0.00337  |ddm|= 0.0112
HOMO:  -0.1757758169377052 LUMO:  -0.17569737833478363
Fermi energy:      -0.1716385346
[2.0000e+00 2.0000e+00 2.0000e+00 2.0000e+00 1.9999e+00 1.9999e+00
 1.8315e+00 1.3916e+00 1.3916e+00 1.3850e+00 1.4162e-04 1.4159e-04
 1.4159e-04]
entropy correction =  -0.021378625326079388
cycle= 7 E= -12.0381479010357  delta_E= -7.11e-06  |g|= 2.58e-05  |ddm|= 0.00529
HOMO:  -0.17577880704702256 LUMO:  -0.1756994547557157
Fermi energy:      -0.1716410226
[2.0000e+00 2.0000e+00 2.0000e+00 2.0000e+00 1.9999e+00 1.9999e+00
 1.8314e+00 1.3917e+00 1.3917e+00 1.3849e+00 1.4159e-04 1.4158e-04
 1.4158e-04]
entropy correction =  -0.021379031888954958
cycle= 8 E= -12.0381479016279  delta_E= -5.92e-10  |g|= 5.63e-06  |ddm|= 7.83e-05
HOMO:  -0.17577670267589784 LUMO:  -0.17569753075073166
Fermi energy:      -0.1716390877
[2.0000e+00 2.0000e+00 2.0000e+00 2.0000e+00 1.9999e+00 1.9999e+00
 1.8314e+00 1.3917e+00 1.3917e+00 1.3849e+00 1.4161e-04 1.4160e-04
 1.4160e-04]
entropy correction =  -0.021378844685307298
Extra cycle  E= -12.0381479015035  delta_E= 1.24e-10  |g|= 1.57e-05  |ddm|= 4.21e-05
entropy correction =  -0.021378844685307298
rks_ao.ne_frozen =  0
Set gradient conv threshold to 3.16228e-05
tot grids = 190200
init E= -10.326817345601
HOMO:  -0.06483735283858873 LUMO:  -0.06102173311037217
Fermi energy:      -0.0623511866
[2.0000e+00 2.0000e+00 2.0000e+00 2.0000e+00 2.0000e+00 2.0000e+00
 1.4644e+00 1.2436e+00 1.2436e+00 8.6783e-01 4.7955e-01 4.7955e-01
 1.9192e-01 1.5381e-02 6.3611e-03 6.3611e-03 6.8842e-04 6.8842e-04]
entropy correction =  -0.04103974426275795
cycle= 1 E= -11.7942265189775  delta_E= -1.47  |g|= 0.205  |ddm|= 4.44
HOMO:  -0.14113964565934714 LUMO:  -0.14113946464213137
Fermi energy:      -0.1397517741
[2.0000e+00 2.0000e+00 2.0000e+00 2.0000e+00 2.0000e+00 2.0000e+00
 1.2854e+00 1.1442e+00 1.1379e+00 1.1379e+00 6.0995e-01 6.0994e-01
 6.0322e-02 7.2121e-03 3.0367e-03 3.0365e-03 5.8232e-04 5.8229e-04]
entropy correction =  -0.04119191721979596
cycle= 2 E= -11.8113589682645  delta_E= -0.0171  |g|= 0.0628  |ddm|= 1.07
HOMO:  -0.12259720651041392 LUMO:  -0.12150255201736145
Fermi energy:      -0.1210317871
[2.0000e+00 2.0000e+00 2.0000e+00 2.0000e+00 2.0000e+00 2.0000e+00
 1.3360e+00 1.1555e+00 1.1553e+00 1.0470e+00 6.0181e-01 6.0177e-01
 8.2507e-02 1.0291e-02 4.1813e-03 4.1804e-03 7.1497e-04 7.1495e-04]
entropy correction =  -0.04153574905839859
cycle= 3 E= -11.8127132613921  delta_E= -0.00135  |g|= 0.0165  |ddm|= 0.278
HOMO:  -0.12330129796494034 LUMO:  -0.12215075917055578
Fermi energy:      -0.1217318857
[2.0000e+00 2.0000e+00 2.0000e+00 2.0000e+00 2.0000e+00 2.0000e+00
 1.3447e+00 1.1708e+00 1.1557e+00 1.0419e+00 5.9355e-01 5.9203e-01
 8.2128e-02 9.7326e-03 4.0654e-03 4.0385e-03 6.8830e-04 6.8720e-04]
entropy correction =  -0.04137337110416115
cycle= 4 E= -11.8116324932517  delta_E= 0.00108  |g|= 0.0371  |ddm|= 0.0889
HOMO:  -0.12328282713650462 LUMO:  -0.12231079967704091
Fermi energy:      -0.1217283609
[2.0000e+00 2.0000e+00 2.0000e+00 2.0000e+00 2.0000e+00 2.0000e+00
 1.3426e+00 1.1547e+00 1.1542e+00 1.0582e+00 5.9465e-01 5.9437e-01
 8.2104e-02 9.6667e-03 4.0593e-03 4.0553e-03 6.8968e-04 6.8924e-04]
entropy correction =  -0.04141469211241272
cycle= 5 E= -11.8129064745186  delta_E= -0.00127  |g|= 0.00686  |ddm|= 0.0826
HOMO:  -0.12313001355379694 LUMO:  -0.1221975244138851
Fermi energy:      -0.1215542109
[2.0000e+00 2.0000e+00 2.0000e+00 2.0000e+00 2.0000e+00 2.0000e+00
 1.3373e+00 1.1565e+00 1.1563e+00 1.0642e+00 5.9238e-01 5.9206e-01
 8.2100e-02 9.6473e-03 4.0639e-03 4.0589e-03 6.9146e-04 6.9070e-04]
entropy correction =  -0.041403853053979214
cycle= 6 E= -11.8129488179636  delta_E= -4.23e-05  |g|= 0.00152  |ddm|= 0.0157
HOMO:  -0.12319875917102671 LUMO:  -0.12226678877663812
Fermi energy:      -0.1216256216
[2.0000e+00 2.0000e+00 2.0000e+00 2.0000e+00 2.0000e+00 2.0000e+00
 1.3373e+00 1.1565e+00 1.1560e+00 1.0640e+00 5.9292e-01 5.9217e-01
 8.1920e-02 9.6445e-03 4.0633e-03 4.0523e-03 6.9102e-04 6.8937e-04]
entropy correction =  -0.04140402118039428
cycle= 7 E= -11.8129477848575  delta_E= 1.03e-06  |g|= 0.00186  |ddm|= 0.00606
HOMO:  -0.12323776478676365 LUMO:  -0.12230307810093205
Fermi energy:      -0.1216656263
[2.0000e+00 2.0000e+00 2.0000e+00 2.0000e+00 2.0000e+00 2.0000e+00
 1.3376e+00 1.1562e+00 1.1559e+00 1.0637e+00 5.9301e-01 5.9261e-01
 8.1838e-02 9.6436e-03 4.0585e-03 4.0527e-03 6.9030e-04 6.8942e-04]
entropy correction =  -0.04140450060706245
cycle= 8 E= -11.8129506381502  delta_E= -2.85e-06  |g|= 0.000393  |ddm|= 0.00384
HOMO:  -0.12323872827029546 LUMO:  -0.1223033334265984
Fermi energy:      -0.1216660928
[2.0000e+00 2.0000e+00 2.0000e+00 2.0000e+00 2.0000e+00 2.0000e+00
 1.3377e+00 1.1561e+00 1.1560e+00 1.0636e+00 5.9291e-01 5.9273e-01
 8.1837e-02 9.6434e-03 4.0570e-03 4.0543e-03 6.9007e-04 6.8967e-04]
entropy correction =  -0.041404521103902144
cycle= 9 E= -11.8129507430778  delta_E= -1.05e-07  |g|= 0.000221  |ddm|= 0.00109
HOMO:  -0.12323874512893891 LUMO:  -0.12230429052460028
Fermi energy:      -0.1216686876
[2.0000e+00 2.0000e+00 2.0000e+00 2.0000e+00 2.0000e+00 2.0000e+00
 1.3379e+00 1.1561e+00 1.1557e+00 1.0635e+00 5.9322e-01 5.9256e-01
 8.1840e-02 9.6427e-03 4.0609e-03 4.0510e-03 6.9069e-04 6.8922e-04]
entropy correction =  -0.04140477923259772
cycle= 10 E= -11.8129506754003  delta_E= 6.77e-08  |g|= 0.00033  |ddm|= 0.00135
HOMO:  -0.12324034332161271 LUMO:  -0.12230378705557952
Fermi energy:      -0.1216686962
[2.0000e+00 2.0000e+00 2.0000e+00 2.0000e+00 2.0000e+00 2.0000e+00
 1.3380e+00 1.1559e+00 1.1559e+00 1.0634e+00 5.9291e-01 5.9291e-01
 8.1836e-02 9.6416e-03 4.0562e-03 4.0562e-03 6.9001e-04 6.9000e-04]
entropy correction =  -0.041404683389837084
cycle= 11 E= -11.8129507907633  delta_E= -1.15e-07  |g|= 7.85e-06  |ddm|= 0.000953
HOMO:  -0.12324124292814401 LUMO:  -0.12230505424630822
Fermi energy:      -0.1216691105
[2.0000e+00 2.0000e+00 2.0000e+00 2.0000e+00 2.0000e+00 2.0000e+00
 1.3379e+00 1.1559e+00 1.1559e+00 1.0635e+00 5.9288e-01 5.9287e-01
 8.1836e-02 9.6418e-03 4.0561e-03 4.0560e-03 6.8997e-04 6.8995e-04]
entropy correction =  -0.041404558197584033
cycle= 12 E= -11.8129507909357  delta_E= -1.72e-10  |g|= 4.92e-06  |ddm|= 0.000149
HOMO:  -0.123240517667529 LUMO:  -0.12230426773794992
Fermi energy:      -0.1216685966
[2.0000e+00 2.0000e+00 2.0000e+00 2.0000e+00 2.0000e+00 2.0000e+00
 1.3379e+00 1.1559e+00 1.1559e+00 1.0635e+00 5.9290e-01 5.9287e-01
 8.1836e-02 9.6421e-03 4.0564e-03 4.0559e-03 6.9002e-04 6.8994e-04]
entropy correction =  -0.04140464907254548
Extra cycle  E= -11.8129507903639  delta_E= 5.72e-10  |g|= 2.44e-05  |ddm|= 8.53e-05
<class 'pydmfet.qcwrap.pyscf_rks_ao.rks_ao'> does not have attributes  add_coredm_ext_energy coredm dm_guess ne_frozen vext_1e
ECP stuttgartdz not found for  GHOST-Al
ECP stuttgartdz not found for  GHOST-Al
<class 'pydmfet.dfet_ao.scf.EmbedSCF'> does not have attributes  Ne
/home/xingz/.local/lib/python3.7/site-packages/pydmfet/oep/oep_optimize.py:61: OptimizeWarning: Unknown solver options: svd_thresh
  options=self.options)
entropy correction =  -0.04140464907254548
scf energies:
EA (no vemb contrib.) =  -35.53974283474834
EB (no vemb contrib.) =  -25.882417352787325
W =  -61.412632317256026
P_imp change (scf - non-scf):  0.7498392544050638
P_bath change (scf - non-scf):  1.8334605003654398
|P_frag + P_env - P_ref| =  3.0844338963372366
max element of (P_frag + P_env - P_ref) =  0.18648325543114347
mo orthogonality:
[[ 4.1886e-01 -8.4604e-07 -2.7760e-06 -1.4632e-06  1.0307e-05  6.6907e-05
  -5.9923e-01  4.2707e-05 -9.9512e-06 -5.4874e-07 -1.0803e-05  7.0479e-06
   9.0925e-05 -1.2158e-01  7.8986e-07 -1.9685e-06  9.6620e-07 -8.5212e-06
   7.2206e-06 -4.6905e-07  3.1640e-06  8.6876e-09  5.4645e-07 -4.8623e-10]
 [ 2.3176e-06  2.6429e-03  4.7039e-01  1.9216e-06 -1.0216e-04 -6.8276e-07
  -5.9306e-06  5.1486e-04 -3.8571e-05  1.9446e-05 -1.3763e-02 -5.0910e-01
  -3.4920e-05 -2.2730e-06  3.0929e-03  2.9252e-01  1.4704e-06  8.1817e-05
  -1.6085e-06  2.8839e-06 -9.6284e-05  1.5489e-02 -6.4884e-04 -7.3666e-07]
 [-2.4753e-06 -4.7039e-01  2.6428e-03  9.9450e-05  1.7322e-06 -1.8420e-06
  -1.0740e-05 -4.2116e-05 -5.0397e-04  1.8495e-05  5.0910e-01 -1.3763e-02
   5.5903e-08  2.5724e-06 -2.9251e-01  3.0929e-03 -7.9907e-05  8.2633e-07
   1.5073e-06  9.5275e-05  1.8736e-06 -6.4906e-04 -1.5492e-02 -1.5197e-06]
 [-4.4794e-05  1.5492e-06  1.6164e-05  1.6999e-06  1.9669e-06 -2.5305e-01
   1.0899e-04  9.8359e-07 -1.5380e-06  6.2800e-09 -1.8552e-06 -2.4405e-05
   5.1037e-01  8.0834e-05 -7.2976e-07  2.8371e-05 -1.3680e-07  8.5967e-07
   2.1339e-01 -1.1498e-05 -3.1511e-06 -3.8308e-05  9.1549e-06 -2.5748e-09]
 [-9.2327e-07  1.4069e-06 -5.3324e-05  1.1802e-03 -1.6960e-02 -3.6927e-07
  -3.8518e-05 -5.6572e-01  7.4157e-02 -3.9610e-04  1.0288e-05 -5.4115e-04
   3.7918e-07 -3.7164e-06 -1.3226e-06  3.2014e-05  5.9373e-03 -1.5981e-01
   2.0635e-07  1.6672e-03 -2.1879e-02 -1.6708e-04  1.7731e-05  1.9393e-07]
 [-1.2524e-07  5.2634e-05  3.4360e-06  1.6959e-02  1.1800e-03 -1.0359e-06
  -3.7625e-06  7.4157e-02  5.6572e-01 -7.9042e-05  5.2758e-04  1.5682e-05
  -3.6529e-07 -6.2217e-07 -3.3263e-05 -1.3353e-06  1.5980e-01  5.9382e-03
   3.0036e-06  2.1875e-02  1.6671e-03  1.3435e-05  1.6661e-04  3.5622e-07]
 [-4.6141e-01  2.4071e-06  2.3892e-06  3.3137e-06 -1.2560e-05 -4.3563e-05
   7.5534e-02 -4.8545e-06  1.6879e-06  6.4047e-08  8.1633e-07 -6.3442e-07
  -3.4086e-05  8.7172e-02  2.4620e-06 -1.1438e-07 -1.5522e-06  4.3834e-06
  -3.2777e-05  8.4320e-07 -5.8422e-07  3.3948e-07 -1.9099e-06  1.1016e-10]
 [-1.8259e-05 -6.7798e-05 -5.9339e-06 -5.6513e-01 -7.1946e-02 -2.5316e-06
   7.5838e-06 -3.1510e-02 -1.6608e-01  1.7800e-05 -1.2904e-04 -1.0596e-05
   8.4154e-07 -2.6619e-05 -1.2476e-04 -1.2267e-05  4.5906e-01  4.3414e-02
  -1.2401e-05 -1.9997e-01 -2.6799e-02 -2.1398e-04 -1.4735e-03  1.3231e-05]
 [ 2.4031e-04 -8.2939e-06  6.9977e-05 -7.1946e-02  5.6513e-01  4.6618e-06
  -8.4319e-05  1.6608e-01 -3.1509e-02  1.1808e-04 -1.0636e-05  1.3114e-04
   9.0577e-07  4.1517e-04 -1.2347e-05  1.2594e-04  4.3415e-02 -4.5906e-01
   1.0866e-06 -2.6798e-02  1.9998e-01  1.4853e-03 -2.3402e-04 -8.4479e-07]
 [-2.8401e-01  1.4750e-06  1.4801e-06 -2.9926e-05  5.0484e-04  2.3413e-05
   1.1369e-01  1.4830e-04 -1.7783e-05  2.0072e-07  2.0897e-06 -5.7089e-07
  -6.1700e-05 -4.4981e-01 -3.0698e-06 -2.4167e-06  1.2345e-05 -4.2450e-04
   3.2058e-05 -1.1914e-05  1.7799e-04  1.2023e-06  1.4140e-06 -1.7109e-09]
 [-4.2910e-05  3.1368e-04 -3.8523e-03  1.7234e-06 -3.5033e-06 -2.4372e-02
   5.7518e-05 -3.9193e-05  8.4546e-06 -1.3080e-06 -1.9434e-03  3.2456e-02
   4.0914e-01 -3.7916e-05 -3.7702e-03  4.9345e-02 -1.7650e-06  1.9733e-05
  -2.8986e-01 -5.5536e-05  6.1181e-04 -7.7369e-02  1.0007e-02  3.4886e-06]
 [ 8.1792e-06  1.8649e-03 -1.7805e-02  3.2388e-06 -1.4839e-05  5.2603e-03
  -1.0877e-05 -1.8048e-04  3.2263e-05 -6.2741e-06 -1.2482e-02  1.5013e-01
  -8.8298e-02  7.9777e-06 -2.2747e-02  2.2807e-01 -9.7113e-06  8.7368e-05
   6.2477e-02 -4.0269e-04  2.8072e-03 -3.5754e-01  5.4715e-02  1.6209e-05]
 [-2.4938e-06  1.8217e-02  1.8892e-03  1.6422e-05  5.1685e-07 -1.1908e-04
   2.8160e-06  3.6069e-05  1.8009e-04 -8.9065e-06 -1.5359e-01 -1.2612e-02
   1.9989e-03  3.5686e-06 -2.3334e-01 -2.3030e-02 -8.9744e-05 -7.1770e-06
  -1.4215e-03 -2.8513e-03 -3.6491e-04  5.5594e-02  3.6582e-01  3.1343e-06]]
|P_imp-P_imp_0| =  0.7498392544050638
max(P_imp-P_imp_0) =  0.15231098730976222
|P_bath-P_bath_0| =  1.8334605003654398
max(P_bath-P_bath_0) =  0.12820127489655928
 This problem is unconstrained.
RUNNING THE L-BFGS-B CODE

           * * *

Machine precision = 2.220D-16
 N =         4656     M =           10

At X0         0 variables are exactly at the bounds

At iterate    0    f=   3.262727444590E+00    |proj g|=  1.264769244E+01

At iterate    1    f=   3.029106408150E+00    |proj g|=  1.371465012E+01

At iterate    2    f=   2.839057033472E+00    |proj g|=  2.417784890E+01

At iterate    3    f=   2.790439166343E+00    |proj g|=  1.908591610E+01

At iterate    4    f=   2.681592942053E+00    |proj g|=  1.451820554E+01

At iterate    5    f=   2.641338660793E+00    |proj g|=  7.785943353E+00

At iterate    6    f=   2.619709143528E+00    |proj g|=  7.050597520E+00

At iterate    7    f=   2.581778961780E+00    |proj g|=  6.215267610E+00

At iterate    8    f=   2.538151196930E+00    |proj g|=  8.723246320E+00

At iterate    9    f=   2.442465009597E+00    |proj g|=  1.144142286E+01

At iterate   10    f=   2.433595733496E+00    |proj g|=  2.323807047E+01

           * * *

Tit   = total number of iterations
Tnf   = total number of function evaluations
Tnint = total number of segments explored during Cauchy searches
Skip  = number of BFGS updates skipped
Nact  = number of active bounds at final generalized Cauchy point
Projg = norm of the final projected gradient
F     = final function value

           * * *

   N    Tit     Tnf  Tnint  Skip  Nact     Projg        F
 4656     10     19      1     0     0   2.324D+01   2.434D+00
  F =   2.4335957334963503     

STOP: TOTAL NO. of ITERATIONS REACHED LIMIT                 

 Cauchy                time 0.000E+00 seconds.
 Subspace minimization time 0.000E+00 seconds.
 Line search           time 0.000E+00 seconds.

 Total User time 0.000E+00 seconds.

