#INFO: **** input file is /tigress/xingz/pydmfet/examples/research/Al12/dmfet/Al12.py ****
from pydmfet import locints, sdmfet, oep, tools, dfet_ao, proj_ao
from pydmfet.dfet_ao import dfet
from pydmfet.qcwrap.pyscf_rks_ao import rks_ao
from pyscf import gto, scf,dft, ao2mo,cc
import numpy as np
from pyscf.tools import molden, cubegen
import copy,time
from pydmfet.tools.sym import h_lattice_sym_tab

bas = 'stuttgartdz'
ecp = 'stuttgartdz'
temp = 0.005


mol = gto.Mole()
mol.atom = open('Al12.xyz').read()
mol.basis = bas
mol.ecp = ecp
mol.build(max_memory = 4000, verbose=4)

mf = rks_ao(mol,smear_sigma = temp)
mf.xc = 'pbe,pbe'
mf.max_cycle = 50
mf.scf(dm0=None)

natoms = mol.natm
impAtom = np.zeros([natoms], dtype=int)
for i in range(6):
    impAtom[i] = 1

ghost_frag = 1-impAtom
ghost_env = 1-ghost_frag

mol_frag = gto.Mole()
mol_frag.atom = tools.add_ghost(mol.atom, ghost_frag)
mol_frag.basis = bas
mol_frag.ecp = ecp
mol_frag.build(max_memory = 4000,verbose = 4)

mol_env = gto.Mole()
mol_env.atom = tools.add_ghost(mol.atom, ghost_env)
mol_env.basis =  bas
mol_env.ecp = ecp
mol_env.build(max_memory = 4000,verbose = 4)

Ne_frag = 18
Ne_env = 18

boundary_atoms = None
boundary_atoms2 =None

umat = None
umat = np.load("umat.npy")

params = oep.OEPparams(algorithm = 'leastsq', opt_method = 'L-BFGS-B', diffP_tol=1e-3, outer_maxit = 5)
params.options['ftol'] = 1e-9
params.options['gtol'] = 1e-3
params.options['maxiter'] = 50
params.options['svd_thresh'] = 1e-4

theDMFET = dfet.DFET(mf, mol_frag, mol_env,Ne_frag,Ne_env,\
                     boundary_atoms=boundary_atoms, boundary_atoms2=boundary_atoms2,umat = umat,\
                     oep_params=params, smear_sigma=temp, ecw_method = 'hf',mf_method = mf.xc, plot_dens=True)

umat = theDMFET.embedding_potential()
#INFO: ******************** input file end ********************


System: uname_result(system='Linux', node='tiger-i25c1n13', release='3.10.0-957.27.2.el7.x86_64', version='#1 SMP Tue Jul 30 11:12:20 EDT 2019', machine='x86_64', processor='x86_64')  Threads 40
Python 3.7.0 (default, Jun 28 2018, 13:15:42) 
[GCC 7.2.0]
numpy 1.16.4  scipy 1.4.0.dev0+0f78e0f
Date: Fri Aug 16 15:42:26 2019
PySCF version 1.5
PySCF path  /home/xingz/.local/lib/python3.7/site-packages/pyscf

[CONFIG] conf_file None
[INPUT] verbose = 4
[INPUT] num. atoms = 12
[INPUT] num. electrons = 36
[INPUT] charge = 0
[INPUT] spin (= nelec alpha-beta = 2S) = 0
[INPUT] symmetry False subgroup None
[INPUT] Mole.unit = angstrom
[INPUT]  1 Al     8.092960000000   4.046480000000  -0.000000000000 AA   15.293477937060   7.646738968530  -0.000000000000 Bohr
[INPUT]  2 Al     8.092960000000   6.069720000000  -2.023240000000 AA   15.293477937060  11.470108452795  -3.823369484265 Bohr
[INPUT]  3 Al    10.116200000000   4.046480000000  -2.023240000000 AA   19.116847421325   7.646738968530  -3.823369484265 Bohr
[INPUT]  4 Al     6.069720000000   4.046480000000  -2.023240000000 AA   11.470108452795   7.646738968530  -3.823369484265 Bohr
[INPUT]  5 Al     8.092960000000   2.023240000000  -2.023240000000 AA   15.293477937060   3.823369484265  -3.823369484265 Bohr
[INPUT]  6 Al     8.092960000000   4.046480000000  -4.046480000000 AA   15.293477937060   7.646738968530  -7.646738968530 Bohr
[INPUT]  7 Al     6.069720000000   6.069720000000  -0.000000000000 AA   11.470108452795  11.470108452795  -0.000000000000 Bohr
[INPUT]  8 Al    10.116200000000   2.023240000000  -0.000000000000 AA   19.116847421325   3.823369484265  -0.000000000000 Bohr
[INPUT]  9 Al    10.116200000000   6.069720000000  -4.046480000000 AA   19.116847421325  11.470108452795  -7.646738968530 Bohr
[INPUT] 10 Al     6.069720000000   2.023240000000  -0.000000000000 AA   11.470108452795   3.823369484265  -0.000000000000 Bohr
[INPUT] 11 Al     6.069720000000   6.069720000000  -4.046480000000 AA   11.470108452795  11.470108452795  -7.646738968530 Bohr
[INPUT] 12 Al    10.116200000000   2.023240000000  -4.046480000000 AA   19.116847421325   3.823369484265  -7.646738968530 Bohr

nuclear repulsion = 84.8573926838199
number of shells = 48
number of NR pGTOs = 192
number of NR cGTOs = 96
basis = stuttgartdz
ecp = stuttgartdz
CPU time:         4.72
rks_ao.ne_frozen =  0


******** <class 'pydmfet.qcwrap.pyscf_rks_ao.rks_ao'> flags ********
method = rks_ao-RKS-RHF
initial guess = minao
damping factor = 0
level shift factor = 0
DIIS = <class 'pyscf.scf.diis.CDIIS'>
DIIS start cycle = 1
DIIS space = 8
SCF tol = 1e-09
SCF gradient tol = None
max. SCF cycles = 50
direct_scf = False
chkfile to save SCF result = /tmp/tmpmqt6_msz
max_memory 4000 MB (current use 71 MB)
XC functionals = pbe,pbe
small_rho_cutoff = 1e-07
radial grids: 
    Treutler-Ahlrichs (JCP 102, 346 (M4)) radial grids
    
becke partition: Becke, JCP, 88, 2547 (1988)
pruning grids: <function nwchem_prune at 0x2b0a88cfc400>
grids dens level: 3
symmetrized grids: False
atomic radii adjust function: <function treutler_atomic_radii_adjust at 0x2b0a88cfc378>
Set gradient conv threshold to 3.16228e-05
tot grids = 220800
init E= -21.344783658299
HOMO:  -0.09640875247665404 LUMO:  -0.08910626015728004
Fermi energy:      -0.0887572500
[2.     2.     2.     2.     2.     2.     2.     2.     2.     2.
 2.     2.     1.9995 1.9096 1.7557 1.7557 1.6441 1.6441 1.0349 0.2163
 0.02   0.02  ]
entropy correction =  -0.030126402950195873
cycle= 1 E= -24.0317931641734  delta_E= -2.69  |g|= 0.653  |ddm|= 6.67
HOMO:  -0.23116268121406952 LUMO:  -0.2311626812140678
Fermi energy:      -0.2358858179
[2.     2.     2.     2.     2.     2.     2.     2.     2.     2.
 2.     2.     2.     1.9989 1.9981 1.9981 1.9963 0.5599 0.5599 0.4393
 0.4393 0.0101]
entropy correction =  -0.023039335110061582
cycle= 2 E= -22.7589412406569  delta_E= 1.27  |g|= 1.61  |ddm|= 4.31
HOMO:  -0.18647942894363415 LUMO:  -0.17551521715008997
Fermi energy:      -0.1766937420
[2.     2.     2.     2.     2.     2.     2.     2.     2.     2.
 2.     2.     1.9995 1.9702 1.7766 1.7766 1.7524 1.7524 0.8827 0.0807
 0.0044 0.0044]
entropy correction =  -0.0241529794263805
cycle= 3 E= -24.1577819172459  delta_E= -1.4  |g|= 0.177  |ddm|= 3.48
HOMO:  -0.1672330936464323 LUMO:  -0.16668219584287144
Fermi energy:      -0.1626445453
[2.     2.     2.     2.     2.     2.     2.     2.     2.     2.
 2.     2.     1.9999 1.922  1.8341 1.8341 1.4292 1.4292 1.3832 0.1196
 0.0244 0.0244]
entropy correction =  -0.029092393079057813
cycle= 4 E= -24.1758252844606  delta_E= -0.018  |g|= 0.0887  |ddm|= 0.83
HOMO:  -0.16913270192185917 LUMO:  -0.1647659994642613
Fermi energy:      -0.1627185946
[2.     2.     2.     2.     2.     2.     2.     2.     2.     2.
 2.     2.     1.9998 1.9364 1.7964 1.7964 1.5659 1.5659 1.2019 0.1144
 0.0115 0.0115]
entropy correction =  -0.028086981458188515
cycle= 5 E= -24.1831548067301  delta_E= -0.00733  |g|= 0.00917  |ddm|= 0.293
HOMO:  -0.17049749264548206 LUMO:  -0.16611814497689226
Fermi energy:      -0.1641279001
[2.     2.     2.     2.     2.     2.     2.     2.     2.     2.
 2.     2.     1.9999 1.9389 1.802  1.802  1.5628 1.5628 1.1964 0.1103
 0.0124 0.0124]
entropy correction =  -0.02795963615164715
cycle= 6 E= -24.1832343125349  delta_E= -7.95e-05  |g|= 0.00113  |ddm|= 0.0422
HOMO:  -0.17058528293722913 LUMO:  -0.16630331880958127
Fermi energy:      -0.1642599608
[2.     2.     2.     2.     2.     2.     2.     2.     2.     2.
 2.     2.     1.9999 1.9387 1.8025 1.8025 1.5598 1.5598 1.2015 0.1105
 0.0124 0.0124]
entropy correction =  -0.027983242952348674
cycle= 7 E= -24.1832355473262  delta_E= -1.23e-06  |g|= 0.000895  |ddm|= 0.00747
HOMO:  -0.17054731833003212 LUMO:  -0.16621690815491424
Fermi energy:      -0.1641961314
[2.     2.     2.     2.     2.     2.     2.     2.     2.     2.
 2.     2.     1.9999 1.9385 1.8018 1.8018 1.5616 1.5616 1.1994 0.1109
 0.0124 0.0124]
entropy correction =  -0.02798902148897179
cycle= 8 E= -24.1832361966833  delta_E= -6.49e-07  |g|= 7.71e-05  |ddm|= 0.00356
HOMO:  -0.17053508515464794 LUMO:  -0.16621147282032084
Fermi energy:      -0.1641878969
[2.     2.     2.     2.     2.     2.     2.     2.     2.     2.
 2.     2.     1.9999 1.9385 1.8019 1.8019 1.5613 1.5613 1.1996 0.1108
 0.0124 0.0124]
entropy correction =  -0.02798838938786185
cycle= 9 E= -24.1832362061523  delta_E= -9.47e-09  |g|= 2.11e-05  |ddm|= 0.000544
HOMO:  -0.17053203700993816 LUMO:  -0.1662077727304467
Fermi energy:      -0.1641845192
[2.     2.     2.     2.     2.     2.     2.     2.     2.     2.
 2.     2.     1.9999 1.9385 1.8019 1.8019 1.5613 1.5613 1.1996 0.1108
 0.0124 0.0124]
entropy correction =  -0.0279881136094374
cycle= 10 E= -24.1832362064492  delta_E= -2.97e-10  |g|= 3.03e-06  |ddm|= 6.6e-05
HOMO:  -0.17053311707967328 LUMO:  -0.1662088500125017
Fermi energy:      -0.1641855888
[2.     2.     2.     2.     2.     2.     2.     2.     2.     2.
 2.     2.     1.9999 1.9385 1.8019 1.8019 1.5613 1.5613 1.1996 0.1108
 0.0124 0.0124]
entropy correction =  -0.0279881237370001
Extra cycle  E= -24.1832362064468  delta_E= 2.34e-12  |g|= 3.71e-06  |ddm|= 1.75e-05
converged SCF energy = -24.1832362064468
#INFO: **** input file is /tigress/xingz/pydmfet/examples/research/Al12/dmfet/Al12.py ****
from pydmfet import locints, sdmfet, oep, tools, dfet_ao, proj_ao
from pydmfet.dfet_ao import dfet
from pydmfet.qcwrap.pyscf_rks_ao import rks_ao
from pyscf import gto, scf,dft, ao2mo,cc
import numpy as np
from pyscf.tools import molden, cubegen
import copy,time
from pydmfet.tools.sym import h_lattice_sym_tab

bas = 'stuttgartdz'
ecp = 'stuttgartdz'
temp = 0.005


mol = gto.Mole()
mol.atom = open('Al12.xyz').read()
mol.basis = bas
mol.ecp = ecp
mol.build(max_memory = 4000, verbose=4)

mf = rks_ao(mol,smear_sigma = temp)
mf.xc = 'pbe,pbe'
mf.max_cycle = 50
mf.scf(dm0=None)

natoms = mol.natm
impAtom = np.zeros([natoms], dtype=int)
for i in range(6):
    impAtom[i] = 1

ghost_frag = 1-impAtom
ghost_env = 1-ghost_frag

mol_frag = gto.Mole()
mol_frag.atom = tools.add_ghost(mol.atom, ghost_frag)
mol_frag.basis = bas
mol_frag.ecp = ecp
mol_frag.build(max_memory = 4000,verbose = 4)

mol_env = gto.Mole()
mol_env.atom = tools.add_ghost(mol.atom, ghost_env)
mol_env.basis =  bas
mol_env.ecp = ecp
mol_env.build(max_memory = 4000,verbose = 4)

Ne_frag = 18
Ne_env = 18

boundary_atoms = None
boundary_atoms2 =None

umat = None
umat = np.load("umat.npy")

params = oep.OEPparams(algorithm = 'leastsq', opt_method = 'L-BFGS-B', diffP_tol=1e-3, outer_maxit = 5)
params.options['ftol'] = 1e-9
params.options['gtol'] = 1e-3
params.options['maxiter'] = 50
params.options['svd_thresh'] = 1e-4

theDMFET = dfet.DFET(mf, mol_frag, mol_env,Ne_frag,Ne_env,\
                     boundary_atoms=boundary_atoms, boundary_atoms2=boundary_atoms2,umat = umat,\
                     oep_params=params, smear_sigma=temp, ecw_method = 'hf',mf_method = mf.xc, plot_dens=True)

umat = theDMFET.embedding_potential()
#INFO: ******************** input file end ********************


System: uname_result(system='Linux', node='tiger-i25c1n13', release='3.10.0-957.27.2.el7.x86_64', version='#1 SMP Tue Jul 30 11:12:20 EDT 2019', machine='x86_64', processor='x86_64')  Threads 40
Python 3.7.0 (default, Jun 28 2018, 13:15:42) 
[GCC 7.2.0]
numpy 1.16.4  scipy 1.4.0.dev0+0f78e0f
Date: Fri Aug 16 15:42:39 2019
PySCF version 1.5
PySCF path  /home/xingz/.local/lib/python3.7/site-packages/pyscf

[CONFIG] conf_file None
[INPUT] verbose = 4
[INPUT] num. atoms = 12
[INPUT] num. electrons = 18
[INPUT] charge = 0
[INPUT] spin (= nelec alpha-beta = 2S) = 0
[INPUT] symmetry False subgroup None
[INPUT] Mole.unit = angstrom
[INPUT]  1 Al     8.092960000000   4.046480000000  -0.000000000000 AA   15.293477937060   7.646738968530  -0.000000000000 Bohr
[INPUT]  2 Al     8.092960000000   6.069720000000  -2.023240000000 AA   15.293477937060  11.470108452795  -3.823369484265 Bohr
[INPUT]  3 Al    10.116200000000   4.046480000000  -2.023240000000 AA   19.116847421325   7.646738968530  -3.823369484265 Bohr
[INPUT]  4 Al     6.069720000000   4.046480000000  -2.023240000000 AA   11.470108452795   7.646738968530  -3.823369484265 Bohr
[INPUT]  5 Al     8.092960000000   2.023240000000  -2.023240000000 AA   15.293477937060   3.823369484265  -3.823369484265 Bohr
[INPUT]  6 Al     8.092960000000   4.046480000000  -4.046480000000 AA   15.293477937060   7.646738968530  -7.646738968530 Bohr
[INPUT]  7 GHOST-Al   6.069720000000   6.069720000000  -0.000000000000 AA   11.470108452795  11.470108452795  -0.000000000000 Bohr
[INPUT]  8 GHOST-Al  10.116200000000   2.023240000000  -0.000000000000 AA   19.116847421325   3.823369484265  -0.000000000000 Bohr
[INPUT]  9 GHOST-Al  10.116200000000   6.069720000000  -4.046480000000 AA   19.116847421325  11.470108452795  -7.646738968530 Bohr
[INPUT] 10 GHOST-Al   6.069720000000   2.023240000000  -0.000000000000 AA   11.470108452795   3.823369484265  -0.000000000000 Bohr
[INPUT] 11 GHOST-Al   6.069720000000   6.069720000000  -4.046480000000 AA   11.470108452795  11.470108452795  -7.646738968530 Bohr
[INPUT] 12 GHOST-Al  10.116200000000   2.023240000000  -4.046480000000 AA   19.116847421325   3.823369484265  -7.646738968530 Bohr

nuclear repulsion = 23.5047992975816
number of shells = 48
number of NR pGTOs = 192
number of NR cGTOs = 96
basis = stuttgartdz
ecp = stuttgartdz
CPU time:       341.01
#INFO: **** input file is /tigress/xingz/pydmfet/examples/research/Al12/dmfet/Al12.py ****
from pydmfet import locints, sdmfet, oep, tools, dfet_ao, proj_ao
from pydmfet.dfet_ao import dfet
from pydmfet.qcwrap.pyscf_rks_ao import rks_ao
from pyscf import gto, scf,dft, ao2mo,cc
import numpy as np
from pyscf.tools import molden, cubegen
import copy,time
from pydmfet.tools.sym import h_lattice_sym_tab

bas = 'stuttgartdz'
ecp = 'stuttgartdz'
temp = 0.005


mol = gto.Mole()
mol.atom = open('Al12.xyz').read()
mol.basis = bas
mol.ecp = ecp
mol.build(max_memory = 4000, verbose=4)

mf = rks_ao(mol,smear_sigma = temp)
mf.xc = 'pbe,pbe'
mf.max_cycle = 50
mf.scf(dm0=None)

natoms = mol.natm
impAtom = np.zeros([natoms], dtype=int)
for i in range(6):
    impAtom[i] = 1

ghost_frag = 1-impAtom
ghost_env = 1-ghost_frag

mol_frag = gto.Mole()
mol_frag.atom = tools.add_ghost(mol.atom, ghost_frag)
mol_frag.basis = bas
mol_frag.ecp = ecp
mol_frag.build(max_memory = 4000,verbose = 4)

mol_env = gto.Mole()
mol_env.atom = tools.add_ghost(mol.atom, ghost_env)
mol_env.basis =  bas
mol_env.ecp = ecp
mol_env.build(max_memory = 4000,verbose = 4)

Ne_frag = 18
Ne_env = 18

boundary_atoms = None
boundary_atoms2 =None

umat = None
umat = np.load("umat.npy")

params = oep.OEPparams(algorithm = 'leastsq', opt_method = 'L-BFGS-B', diffP_tol=1e-3, outer_maxit = 5)
params.options['ftol'] = 1e-9
params.options['gtol'] = 1e-3
params.options['maxiter'] = 50
params.options['svd_thresh'] = 1e-4

theDMFET = dfet.DFET(mf, mol_frag, mol_env,Ne_frag,Ne_env,\
                     boundary_atoms=boundary_atoms, boundary_atoms2=boundary_atoms2,umat = umat,\
                     oep_params=params, smear_sigma=temp, ecw_method = 'hf',mf_method = mf.xc, plot_dens=True)

umat = theDMFET.embedding_potential()
#INFO: ******************** input file end ********************


System: uname_result(system='Linux', node='tiger-i25c1n13', release='3.10.0-957.27.2.el7.x86_64', version='#1 SMP Tue Jul 30 11:12:20 EDT 2019', machine='x86_64', processor='x86_64')  Threads 40
Python 3.7.0 (default, Jun 28 2018, 13:15:42) 
[GCC 7.2.0]
numpy 1.16.4  scipy 1.4.0.dev0+0f78e0f
Date: Fri Aug 16 15:42:39 2019
PySCF version 1.5
PySCF path  /home/xingz/.local/lib/python3.7/site-packages/pyscf

[CONFIG] conf_file None
[INPUT] verbose = 4
[INPUT] num. atoms = 12
[INPUT] num. electrons = 18
[INPUT] charge = 0
[INPUT] spin (= nelec alpha-beta = 2S) = 0
[INPUT] symmetry False subgroup None
[INPUT] Mole.unit = angstrom
[INPUT]  1 GHOST-Al   8.092960000000   4.046480000000  -0.000000000000 AA   15.293477937060   7.646738968530  -0.000000000000 Bohr
[INPUT]  2 GHOST-Al   8.092960000000   6.069720000000  -2.023240000000 AA   15.293477937060  11.470108452795  -3.823369484265 Bohr
[INPUT]  3 GHOST-Al  10.116200000000   4.046480000000  -2.023240000000 AA   19.116847421325   7.646738968530  -3.823369484265 Bohr
[INPUT]  4 GHOST-Al   6.069720000000   4.046480000000  -2.023240000000 AA   11.470108452795   7.646738968530  -3.823369484265 Bohr
[INPUT]  5 GHOST-Al   8.092960000000   2.023240000000  -2.023240000000 AA   15.293477937060   3.823369484265  -3.823369484265 Bohr
[INPUT]  6 GHOST-Al   8.092960000000   4.046480000000  -4.046480000000 AA   15.293477937060   7.646738968530  -7.646738968530 Bohr
[INPUT]  7 Al     6.069720000000   6.069720000000  -0.000000000000 AA   11.470108452795  11.470108452795  -0.000000000000 Bohr
[INPUT]  8 Al    10.116200000000   2.023240000000  -0.000000000000 AA   19.116847421325   3.823369484265  -0.000000000000 Bohr
[INPUT]  9 Al    10.116200000000   6.069720000000  -4.046480000000 AA   19.116847421325  11.470108452795  -7.646738968530 Bohr
[INPUT] 10 Al     6.069720000000   2.023240000000  -0.000000000000 AA   11.470108452795   3.823369484265  -0.000000000000 Bohr
[INPUT] 11 Al     6.069720000000   6.069720000000  -4.046480000000 AA   11.470108452795  11.470108452795  -7.646738968530 Bohr
[INPUT] 12 Al    10.116200000000   2.023240000000  -4.046480000000 AA   19.116847421325   3.823369484265  -7.646738968530 Bohr

nuclear repulsion = 14.0938802665721
number of shells = 48
number of NR pGTOs = 192
number of NR cGTOs = 96
basis = stuttgartdz
ecp = stuttgartdz
CPU time:       341.42


******** <class 'pydmfet.dfet_ao.scf.EmbedSCF'> flags ********
method = EmbedSCF-RKS-RHF
initial guess = minao
damping factor = 0
level shift factor = 0
DIIS = <class 'pyscf.scf.diis.CDIIS'>
DIIS start cycle = 1
DIIS space = 8
SCF tol = 1e-09
SCF gradient tol = None
max. SCF cycles = 50
direct_scf = False
chkfile to save SCF result = /tmp/tmpvl3qiqbt
max_memory 4000 MB (current use 573 MB)
XC functionals = pbe,pbe
small_rho_cutoff = 1e-07
radial grids: 
    Treutler-Ahlrichs (JCP 102, 346 (M4)) radial grids
    
becke partition: Becke, JCP, 88, 2547 (1988)
pruning grids: <function nwchem_prune at 0x2b0a88cfc400>
grids dens level: 3
symmetrized grids: False
atomic radii adjust function: <function treutler_atomic_radii_adjust at 0x2b0a88cfc378>
Set gradient conv threshold to 3.16228e-05
tot grids = 190200
init E= -9.38519098407922
HOMO: -0.19672769479986485 LUMO: -0.19324244334183857
mo_energy:
[-0.3658 -0.2606 -0.233  -0.231  -0.202  -0.2015 -0.1985 -0.1968 -0.1967
 -0.1932 -0.1874 -0.1871 -0.1805 -0.1726]
e_fermi =  -0.1926831634731532
[2.    2.    1.999 1.999 1.734 1.709 1.522 1.39  1.384 1.056 0.516 0.494
 0.162 0.035]
entropy correction =  -0.04787395653017658
cycle= 1 E= -12.6723876401216  delta_E= -3.29  |g|= 0.519  |ddm|= 4.83
HOMO: -0.36554207052501586 LUMO: -0.34315177574426053
mo_energy:
[-0.672 -0.523 -0.465 -0.462 -0.389 -0.382 -0.382 -0.366 -0.366 -0.343
 -0.343 -0.34  -0.33  -0.32 ]
e_fermi =  -0.35491780207017537
[2.000e+00 2.000e+00 2.000e+00 2.000e+00 1.998e+00 1.991e+00 1.991e+00
 1.793e+00 1.787e+00 1.736e-01 1.613e-01 8.778e-02 1.485e-02 1.962e-03]
entropy correction =  -0.015431687880954259
cycle= 2 E= -12.5946612037511  delta_E= 0.0777  |g|= 0.598  |ddm|= 2.29
HOMO: -0.30223728527888666 LUMO: -0.30059484042569623
mo_energy:
[-0.529 -0.408 -0.365 -0.363 -0.318 -0.317 -0.316 -0.302 -0.302 -0.301
 -0.3   -0.3   -0.284 -0.269]
e_fermi =  -0.30254963602877105
[2.    2.    2.    2.    1.91  1.894 1.872 0.983 0.969 0.807 0.778 0.74
 0.045 0.003]
entropy correction =  -0.04133515025852817
cycle= 3 E= -12.7847881374806  delta_E= -0.19  |g|= 0.0754  |ddm|= 1.46
HOMO: -0.3049318198107231 LUMO: -0.301518416655428
mo_energy:
[-0.532 -0.404 -0.37  -0.367 -0.318 -0.317 -0.316 -0.307 -0.305 -0.302
 -0.3   -0.299 -0.285 -0.271]
e_fermi =  -0.30371677554304705
[2.    2.    2.    2.    1.883 1.863 1.828 1.273 1.121 0.784 0.648 0.549
 0.048 0.003]
entropy correction =  -0.041174171332554
cycle= 4 E= -12.6973029507949  delta_E= 0.0875  |g|= 0.368  |ddm|= 0.754
HOMO: -0.30465386013831797 LUMO: -0.3025238085512303
mo_energy:
[-0.532 -0.403 -0.37  -0.367 -0.316 -0.315 -0.315 -0.305 -0.305 -0.303
 -0.301 -0.3   -0.286 -0.271]
e_fermi =  -0.30376423327064106
[2.    2.    2.    2.    1.839 1.815 1.8   1.154 1.089 0.877 0.699 0.67
 0.054 0.003]
entropy correction =  -0.043890628231439896
cycle= 5 E= -12.7840616647741  delta_E= -0.0868  |g|= 0.0821  |ddm|= 0.704
HOMO: -0.30193144771545827 LUMO: -0.3008035512615309
mo_energy:
[-0.53  -0.404 -0.366 -0.365 -0.315 -0.314 -0.312 -0.303 -0.302 -0.301
 -0.299 -0.298 -0.283 -0.268]
e_fermi =  -0.3016230888454316
[2.    2.    2.    2.    1.872 1.842 1.794 1.112 1.031 0.918 0.73  0.649
 0.051 0.003]
entropy correction =  -0.04329983729881433
cycle= 6 E= -12.7850139866541  delta_E= -0.000952  |g|= 0.0708  |ddm|= 0.318
HOMO: -0.3015617517910169 LUMO: -0.29964023920140104
mo_energy:
[-0.529 -0.404 -0.365 -0.363 -0.314 -0.314 -0.313 -0.302 -0.302 -0.3
 -0.298 -0.298 -0.283 -0.268]
e_fermi =  -0.30117653566465513
[2.    2.    2.    2.    1.85  1.844 1.836 1.062 1.039 0.848 0.735 0.733
 0.051 0.002]
entropy correction =  -0.04331060428073554
cycle= 7 E= -12.7892995859591  delta_E= -0.00429  |g|= 0.0303  |ddm|= 0.215
HOMO: -0.30159980125113744 LUMO: -0.29993531696109793
mo_energy:
[-0.529 -0.404 -0.366 -0.363 -0.314 -0.314 -0.313 -0.302 -0.302 -0.3
 -0.299 -0.298 -0.283 -0.268]
e_fermi =  -0.3013342118351841
[2.    2.    2.    2.    1.85  1.846 1.833 1.072 1.027 0.861 0.739 0.72
 0.051 0.002]
entropy correction =  -0.043315772499891686
cycle= 8 E= -12.7890847569517  delta_E= 0.000215  |g|= 0.0315  |ddm|= 0.108
HOMO: -0.30218832320499 LUMO: -0.300246117803595
mo_energy:
[-0.53  -0.404 -0.366 -0.364 -0.314 -0.314 -0.314 -0.302 -0.302 -0.3
 -0.299 -0.299 -0.284 -0.268]
e_fermi =  -0.3017456645281979
[2.    2.    2.    2.    1.845 1.843 1.832 1.058 1.044 0.851 0.737 0.735
 0.051 0.002]
entropy correction =  -0.0434539850078274
cycle= 9 E= -12.7898708510881  delta_E= -0.000786  |g|= 0.00677  |ddm|= 0.0728
HOMO: -0.3021539931870819 LUMO: -0.3002278316317711
mo_energy:
[-0.53  -0.404 -0.366 -0.364 -0.314 -0.314 -0.314 -0.302 -0.302 -0.3
 -0.299 -0.299 -0.284 -0.268]
e_fermi =  -0.30171754462192485
[2.    2.    2.    2.    1.845 1.843 1.832 1.058 1.044 0.852 0.738 0.735
 0.051 0.002]
entropy correction =  -0.04346788813930145
cycle= 10 E= -12.7898934165687  delta_E= -2.26e-05  |g|= 0.00348  |ddm|= 0.0161
HOMO: -0.30203427935022775 LUMO: -0.3001780651535394
mo_energy:
[-0.529 -0.404 -0.366 -0.364 -0.314 -0.314 -0.314 -0.302 -0.302 -0.3
 -0.299 -0.299 -0.283 -0.268]
e_fermi =  -0.30165192121200746
[2.    2.    2.    2.    1.844 1.843 1.832 1.06  1.038 0.854 0.739 0.736
 0.051 0.002]
entropy correction =  -0.043485200323379464
cycle= 11 E= -12.7898970142366  delta_E= -3.6e-06  |g|= 0.00205  |ddm|= 0.0103
HOMO: -0.30208929502554677 LUMO: -0.3001859809434391
mo_energy:
[-0.53  -0.404 -0.366 -0.364 -0.314 -0.314 -0.314 -0.302 -0.302 -0.3
 -0.299 -0.299 -0.283 -0.268]
e_fermi =  -0.3016681173983805
[2.    2.    2.    2.    1.844 1.843 1.832 1.058 1.042 0.853 0.738 0.736
 0.051 0.002]
entropy correction =  -0.0434767372013778
cycle= 12 E= -12.7899016479223  delta_E= -4.63e-06  |g|= 0.000458  |ddm|= 0.00676
HOMO: -0.3020977002156669 LUMO: -0.3001946353313515
mo_energy:
[-0.53  -0.404 -0.366 -0.364 -0.314 -0.314 -0.314 -0.302 -0.302 -0.3
 -0.299 -0.299 -0.283 -0.268]
e_fermi =  -0.30167908862754667
[2.    2.    2.    2.    1.844 1.843 1.832 1.059 1.042 0.853 0.738 0.736
 0.051 0.002]
entropy correction =  -0.043474365200599295
cycle= 13 E= -12.7899016119428  delta_E= 3.6e-08  |g|= 0.000448  |ddm|= 0.00201
HOMO: -0.30209870404253114 LUMO: -0.3001939516023606
mo_energy:
[-0.53  -0.404 -0.366 -0.364 -0.314 -0.314 -0.314 -0.302 -0.302 -0.3
 -0.299 -0.299 -0.283 -0.268]
e_fermi =  -0.3016786190787645
[2.    2.    2.    2.    1.844 1.843 1.832 1.059 1.042 0.853 0.738 0.736
 0.051 0.002]
entropy correction =  -0.043473581636027187
cycle= 14 E= -12.789901841857  delta_E= -2.3e-07  |g|= 5.68e-05  |ddm|= 0.00133
HOMO: -0.3020981206107129 LUMO: -0.30019408692350485
mo_energy:
[-0.53  -0.404 -0.366 -0.364 -0.314 -0.314 -0.314 -0.302 -0.302 -0.3
 -0.299 -0.299 -0.283 -0.268]
e_fermi =  -0.30167842287260443
[2.    2.    2.    2.    1.844 1.843 1.832 1.059 1.042 0.853 0.738 0.736
 0.051 0.002]
entropy correction =  -0.043473938129501566
cycle= 15 E= -12.7899018440394  delta_E= -2.18e-09  |g|= 3.93e-05  |ddm|= 0.000217
HOMO: -0.302099351508925 LUMO: -0.30019489833685326
mo_energy:
[-0.53  -0.404 -0.366 -0.364 -0.314 -0.314 -0.314 -0.302 -0.302 -0.3
 -0.299 -0.299 -0.283 -0.268]
e_fermi =  -0.3016794538457975
[2.    2.    2.    2.    1.844 1.843 1.832 1.059 1.042 0.853 0.738 0.736
 0.051 0.002]
entropy correction =  -0.043473474017419696
cycle= 16 E= -12.7899018448889  delta_E= -8.5e-10  |g|= 1.83e-05  |ddm|= 0.000115
HOMO: -0.3020982439806479 LUMO: -0.30019468589304604
mo_energy:
[-0.53  -0.404 -0.366 -0.364 -0.314 -0.314 -0.314 -0.302 -0.302 -0.3
 -0.299 -0.299 -0.283 -0.268]
e_fermi =  -0.3016787591952319
[2.    2.    2.    2.    1.844 1.843 1.832 1.059 1.042 0.853 0.738 0.736
 0.051 0.002]
entropy correction =  -0.043474227354358075
Extra cycle  E= -12.7899018245925  delta_E= 2.03e-08  |g|= 0.00017  |ddm|= 0.00035
converged SCF energy = -12.7899018245925


******** <class 'pydmfet.dfet_ao.scf.EmbedSCF'> flags ********
method = EmbedSCF-RKS-RHF
initial guess = minao
damping factor = 0
level shift factor = 0
DIIS = <class 'pyscf.scf.diis.CDIIS'>
DIIS start cycle = 1
DIIS space = 8
SCF tol = 1e-09
SCF gradient tol = None
max. SCF cycles = 50
direct_scf = False
chkfile to save SCF result = /tmp/tmpf96drqo8
max_memory 4000 MB (current use 2645 MB)
XC functionals = pbe,pbe
small_rho_cutoff = 1e-07
radial grids: 
    Treutler-Ahlrichs (JCP 102, 346 (M4)) radial grids
    
becke partition: Becke, JCP, 88, 2547 (1988)
pruning grids: <function nwchem_prune at 0x2b0a88cfc400>
grids dens level: 3
symmetrized grids: False
atomic radii adjust function: <function treutler_atomic_radii_adjust at 0x2b0a88cfc378>
Set gradient conv threshold to 3.16228e-05
tot grids = 190200
init E= -9.66265322529123
HOMO: -0.1392267000818347 LUMO: -0.1357623358634946
mo_energy:
[-0.293 -0.293 -0.251 -0.235 -0.219 -0.219 -0.148 -0.139 -0.139 -0.136
 -0.136 -0.131 -0.129 -0.121]
e_fermi =  -0.13877503076059836
[2.    2.    2.    2.    2.    2.    1.732 1.07  1.045 0.708 0.705 0.364
 0.268 0.053 0.05  0.005]
entropy correction =  -0.0419979187616429
cycle= 1 E= -12.7285680958682  delta_E= -3.07  |g|= 0.257  |ddm|= 4.88
HOMO: -0.18417413947255537 LUMO: -0.17806640175531274
mo_energy:
[-0.37  -0.369 -0.327 -0.299 -0.299 -0.298 -0.198 -0.184 -0.184 -0.178
 -0.178 -0.177 -0.17  -0.168]
e_fermi =  -0.18308902656269702
[2.    2.    2.    2.    2.    2.    1.91  1.13  1.108 0.536 0.506 0.491
 0.13  0.091 0.087 0.011]
entropy correction =  -0.03897347186807501
cycle= 2 E= -12.7379036908138  delta_E= -0.00934  |g|= 0.14  |ddm|= 0.641
HOMO: -0.1936500750591889 LUMO: -0.19054757226654206
mo_energy:
[-0.37  -0.37  -0.33  -0.304 -0.298 -0.297 -0.208 -0.194 -0.194 -0.191
 -0.19  -0.185 -0.18  -0.177]
e_fermi =  -0.1934288570376393
[2.    2.    2.    2.    2.    2.    1.895 1.046 1.022 0.72  0.712 0.337
 0.122 0.072 0.068 0.006]
entropy correction =  -0.03900887241296002
cycle= 3 E= -12.7465996633115  delta_E= -0.0087  |g|= 0.0305  |ddm|= 0.297
HOMO: -0.1883013952790424 LUMO: -0.1846412314829738
mo_energy:
[-0.366 -0.364 -0.324 -0.299 -0.293 -0.292 -0.202 -0.189 -0.188 -0.185
 -0.184 -0.18  -0.174 -0.171]
e_fermi =  -0.1877895832138977
[2.    2.    2.    2.    2.    2.    1.894 1.09  1.051 0.695 0.632 0.372
 0.118 0.074 0.067 0.006]
entropy correction =  -0.03888580737570247
cycle= 4 E= -12.7406040966174  delta_E= 0.006  |g|= 0.0889  |ddm|= 0.197
HOMO: -0.1876466875879799 LUMO: -0.18384678122371978
mo_energy:
[-0.365 -0.363 -0.323 -0.298 -0.292 -0.292 -0.201 -0.188 -0.188 -0.184
 -0.183 -0.18  -0.173 -0.171]
e_fermi =  -0.18711248315364956
[2.    2.    2.    2.    2.    2.    1.893 1.086 1.053 0.685 0.639 0.372
 0.117 0.077 0.072 0.006]
entropy correction =  -0.039018403376257525
cycle= 5 E= -12.7467774422801  delta_E= -0.00617  |g|= 0.0234  |ddm|= 0.153
HOMO: -0.18765907650497649 LUMO: -0.18362969427663448
mo_energy:
[-0.364 -0.364 -0.323 -0.298 -0.292 -0.292 -0.201 -0.188 -0.188 -0.184
 -0.183 -0.18  -0.173 -0.171]
e_fermi =  -0.1870808392264526
[2.    2.    2.    2.    2.    2.    1.893 1.081 1.058 0.668 0.655 0.374
 0.117 0.077 0.072 0.006]
entropy correction =  -0.03902707835171706
cycle= 6 E= -12.7472050227179  delta_E= -0.000428  |g|= 0.00727  |ddm|= 0.0626
HOMO: -0.1877325301226281 LUMO: -0.18372718179639475
mo_energy:
[-0.364 -0.364 -0.324 -0.298 -0.292 -0.292 -0.202 -0.188 -0.188 -0.184
 -0.184 -0.18  -0.173 -0.171]
e_fermi =  -0.18716965006151476
[2.    2.    2.    2.    2.    2.    1.893 1.08  1.056 0.669 0.658 0.373
 0.116 0.076 0.072 0.006]
entropy correction =  -0.039019775254734025
cycle= 7 E= -12.747158392832  delta_E= 4.66e-05  |g|= 0.0104  |ddm|= 0.0244
HOMO: -0.18780270474401786 LUMO: -0.18385653580570396
mo_energy:
[-0.364 -0.364 -0.324 -0.298 -0.292 -0.292 -0.202 -0.188 -0.188 -0.184
 -0.184 -0.18  -0.173 -0.171]
e_fermi =  -0.187260547270379
[2.    2.    2.    2.    2.    2.    1.893 1.08  1.054 0.672 0.659 0.373
 0.116 0.076 0.072 0.006]
entropy correction =  -0.039014993561012845
cycle= 8 E= -12.7472473241538  delta_E= -8.89e-05  |g|= 0.00188  |ddm|= 0.0198
HOMO: -0.18781800153728956 LUMO: -0.18389346005714763
mo_energy:
[-0.364 -0.364 -0.324 -0.298 -0.292 -0.292 -0.202 -0.188 -0.188 -0.184
 -0.184 -0.18  -0.173 -0.171]
e_fermi =  -0.1872759196905784
[2.    2.    2.    2.    2.    2.    1.893 1.079 1.054 0.674 0.658 0.372
 0.116 0.076 0.072 0.006]
entropy correction =  -0.039013325515048713
cycle= 9 E= -12.7472462653218  delta_E= 1.06e-06  |g|= 0.00227  |ddm|= 0.00833
HOMO: -0.1878217961251957 LUMO: -0.18390120463782245
mo_energy:
[-0.364 -0.364 -0.324 -0.298 -0.292 -0.292 -0.202 -0.188 -0.188 -0.184
 -0.184 -0.18  -0.173 -0.171]
e_fermi =  -0.18727765641623187
[2.    2.    2.    2.    2.    2.    1.893 1.079 1.054 0.675 0.658 0.372
 0.115 0.076 0.072 0.006]
entropy correction =  -0.03901240934381627
cycle= 10 E= -12.7472501799006  delta_E= -3.91e-06  |g|= 0.000369  |ddm|= 0.00532
HOMO: -0.18781192729398757 LUMO: -0.183883623315937
mo_energy:
[-0.364 -0.364 -0.324 -0.298 -0.292 -0.292 -0.202 -0.188 -0.188 -0.184
 -0.184 -0.18  -0.173 -0.171]
e_fermi =  -0.18726830641204847
[2.    2.    2.    2.    2.    2.    1.893 1.079 1.054 0.674 0.659 0.372
 0.115 0.076 0.072 0.006]
entropy correction =  -0.039011958217043945
cycle= 11 E= -12.7472503203881  delta_E= -1.4e-07  |g|= 7.46e-05  |ddm|= 0.00117
HOMO: -0.18781136187264405 LUMO: -0.1838820549920176
mo_energy:
[-0.364 -0.364 -0.324 -0.298 -0.292 -0.292 -0.202 -0.188 -0.188 -0.184
 -0.184 -0.18  -0.173 -0.171]
e_fermi =  -0.18726696304834792
[2.    2.    2.    2.    2.    2.    1.893 1.079 1.054 0.674 0.658 0.372
 0.115 0.076 0.072 0.006]
entropy correction =  -0.03901079222392073
cycle= 12 E= -12.7472503209945  delta_E= -6.06e-10  |g|= 6.14e-05  |ddm|= 0.000236
HOMO: -0.18780933944473047 LUMO: -0.18387973569391472
mo_energy:
[-0.364 -0.364 -0.324 -0.298 -0.292 -0.292 -0.202 -0.188 -0.188 -0.184
 -0.184 -0.18  -0.173 -0.171]
e_fermi =  -0.18726480997011252
[2.    2.    2.    2.    2.    2.    1.893 1.079 1.054 0.674 0.658 0.372
 0.115 0.076 0.072 0.006]
entropy correction =  -0.03901063917291654
cycle= 13 E= -12.7472503177854  delta_E= 3.21e-09  |g|= 8.76e-05  |ddm|= 0.000298
HOMO: -0.18781076379487288 LUMO: -0.18388135900971617
mo_energy:
[-0.364 -0.364 -0.324 -0.298 -0.292 -0.292 -0.202 -0.188 -0.188 -0.184
 -0.184 -0.18  -0.173 -0.171]
e_fermi =  -0.18726629420502724
[2.    2.    2.    2.    2.    2.    1.893 1.079 1.054 0.674 0.658 0.372
 0.115 0.076 0.072 0.006]
entropy correction =  -0.03901064298299641
cycle= 14 E= -12.7472503232445  delta_E= -5.46e-09  |g|= 3.43e-05  |ddm|= 0.000186
HOMO: -0.18781136634369813 LUMO: -0.1838818608312418
mo_energy:
[-0.364 -0.364 -0.324 -0.298 -0.292 -0.292 -0.202 -0.188 -0.188 -0.184
 -0.184 -0.18  -0.173 -0.171]
e_fermi =  -0.1872668856709882
[2.    2.    2.    2.    2.    2.    1.893 1.079 1.054 0.674 0.658 0.372
 0.115 0.076 0.072 0.006]
entropy correction =  -0.03901056968121812
cycle= 15 E= -12.7472503240423  delta_E= -7.98e-10  |g|= 1.56e-05  |ddm|= 8.43e-05
HOMO: -0.1878109896268146 LUMO: -0.18388204568352823
mo_energy:
[-0.364 -0.364 -0.324 -0.298 -0.292 -0.292 -0.202 -0.188 -0.188 -0.184
 -0.184 -0.18  -0.173 -0.171]
e_fermi =  -0.1872666013566138
[2.    2.    2.    2.    2.    2.    1.893 1.079 1.054 0.674 0.658 0.372
 0.115 0.076 0.072 0.006]
entropy correction =  -0.03901049187769961
Extra cycle  E= -12.7472503169347  delta_E= 7.11e-09  |g|= 9.28e-05  |ddm|= 0.000225
converged SCF energy = -12.7472503169347
|umat| =  2.032590442525767
rks_ao.ne_frozen =  0
Set gradient conv threshold to 3.16228e-05
Initial guess from hcore.
HOMO:  -3.4841962257482235 LUMO:  -3.272609486625956
Fermi energy:      -3.3765040778
[2. 2. 2. 2. 2. 2. 2. 2. 2.]
tot grids = 190200
init E= -9.51908893754991
HOMO:  -0.04664542666008303 LUMO:  -0.031170865413192094
Fermi energy:      -0.0382665929
[2.0000e+00 2.0000e+00 2.0000e+00 2.0000e+00 2.0000e+00 2.0000e+00
 1.9636e+00 1.9616e+00 1.6847e+00 3.8959e-01 2.3281e-04 2.1861e-04]
entropy correction =  -0.011170991282358898
cycle= 1 E= -8.02736567991103  delta_E= 1.49  |g|= 3.15  |ddm|= 8.65
HOMO:  -0.8754954554214587 LUMO:  -0.7295678559105901
Fermi energy:      -0.8009876491
[2. 2. 2. 2. 2. 2. 2. 2. 2.]
entropy correction =  -2.091218716981561e-07
cycle= 2 E= -10.3672245578719  delta_E= -2.34  |g|= 2.24  |ddm|= 7.86
HOMO:  -0.3978222444940068 LUMO:  -0.3729621362814705
Fermi energy:      -0.3855630992
[2.     2.     2.     2.     1.9955 1.9824 1.9814 1.8472 1.8414 0.1489
 0.1489 0.0418 0.0066 0.0059]
entropy correction =  -0.013397651890543148
cycle= 3 E= -12.6862469073902  delta_E= -2.32  |g|= 0.47  |ddm|=  5.3
HOMO:  -0.29591971431954023 LUMO:  -0.295379467957869
Fermi energy:      -0.2974215518
[2.0000e+00 2.0000e+00 2.0000e+00 2.0000e+00 1.8895e+00 1.8860e+00
 1.7729e+00 1.2669e+00 8.5094e-01 7.9858e-01 7.5378e-01 6.8762e-01
 9.2091e-02 1.7692e-03]
entropy correction =  -0.04297954083383613
cycle= 4 E= -12.777205581145  delta_E= -0.091  |g|= 0.113  |ddm|= 1.51
HOMO:  -0.3088992907320724 LUMO:  -0.3021985507764145
Fermi energy:      -0.3060571838
[2.0000e+00 2.0000e+00 2.0000e+00 2.0000e+00 1.9439e+00 1.8955e+00
 1.8896e+00 1.3959e+00 1.2768e+00 6.3221e-01 5.1409e-01 4.1563e-01
 3.4821e-02 1.6090e-03]
entropy correction =  -0.036127559328810115
cycle= 5 E= -12.5877888618937  delta_E= 0.189  |g|= 0.556  |ddm|= 1.16
HOMO:  -0.3114230963200808 LUMO:  -0.3060483305382333
Fermi energy:      -0.3091597549
[2.     2.     2.     2.     1.9043 1.8683 1.8384 1.2426 1.2225 0.6985
 0.6056 0.5779 0.0398 0.002 ]
entropy correction =  -0.040145516160673175
cycle= 6 E= -12.7778146581158  delta_E= -0.19  |g|= 0.137  |ddm|= 0.843
HOMO:  -0.3114189054443057 LUMO:  -0.30640520688161754
Fermi energy:      -0.3091022466
[2.     2.     2.     2.     1.8827 1.8491 1.8448 1.255  1.2276 0.7367
 0.5906 0.5705 0.041  0.0021]
entropy correction =  -0.040620616743986065
cycle= 7 E= -12.7681048753388  delta_E= 0.00971  |g|= 0.185  |ddm|= 0.444
HOMO:  -0.3091800769478736 LUMO:  -0.3062257649197896
Fermi energy:      -0.3079021491
[2.     2.     2.     2.     1.8472 1.8419 1.8248 1.1761 1.1271 0.8339
 0.6605 0.638  0.0481 0.0023]
entropy correction =  -0.04268248905715729
cycle= 8 E= -12.7847192853062  delta_E= -0.0166  |g|= 0.0886  |ddm|= 0.365
HOMO:  -0.307358096630321 LUMO:  -0.30474259857215946
Fermi energy:      -0.3063333546
[2.     2.     2.     2.     1.8526 1.841  1.8289 1.135  1.1021 0.8423
 0.6806 0.6658 0.0493 0.0023]
entropy correction =  -0.042873535710773354
cycle= 9 E= -12.7820307851554  delta_E= 0.00269  |g|= 0.11  |ddm|=  0.3
HOMO:  -0.300747986789019 LUMO:  -0.30038980696597606
Fermi energy:      -0.3008873038
[2.     2.     2.     2.     1.8832 1.8484 1.8087 1.0229 0.9861 0.9503
 0.777  0.6695 0.0517 0.0022]
entropy correction =  -0.043184170744188156
cycle= 10 E= -12.7843136582586  delta_E= -0.00228  |g|= 0.0756  |ddm|= 0.321
HOMO:  -0.30027583572350774 LUMO:  -0.29981055373592275
Fermi energy:      -0.3006736431
[2.     2.     2.     2.     1.8675 1.8525 1.8313 1.0401 0.9602 0.9139
 0.7539 0.728  0.0502 0.0023]
entropy correction =  -0.043151351533322856
cycle= 11 E= -12.7878840015535  delta_E= -0.00357  |g|= 0.0441  |ddm|= 0.289
HOMO:  -0.3018269403217003 LUMO:  -0.29995114281755747
Fermi energy:      -0.3014375654
[2.     2.     2.     2.     1.8457 1.8406 1.8307 1.0678 1.0389 0.8524
 0.7374 0.733  0.051  0.0025]
entropy correction =  -0.04348937664688156
cycle= 12 E= -12.7899458601512  delta_E= -0.00206  |g|= 0.00672  |ddm|= 0.134
HOMO:  -0.30252882040726947 LUMO:  -0.3004240409999879
Fermi energy:      -0.3019938499
[2.     2.     2.     2.     1.8486 1.837  1.8296 1.0753 1.0534 0.8443
 0.7342 0.7247 0.0504 0.0025]
entropy correction =  -0.04344318344561279
cycle= 13 E= -12.7898848143604  delta_E= 6.1e-05  |g|= 0.0102  |ddm|= 0.0473
HOMO:  -0.302260614606265 LUMO:  -0.30028561701310935
Fermi energy:      -0.3017931729
[2.     2.     2.     2.     1.8446 1.8427 1.8317 1.0611 1.0467 0.8504
 0.7369 0.7326 0.0508 0.0025]
entropy correction =  -0.043456128821586816
cycle= 14 E= -12.789990211709  delta_E= -0.000105  |g|= 0.00276  |ddm|= 0.0318
HOMO:  -0.30214558068547653 LUMO:  -0.30026794451674377
Fermi energy:      -0.3017401455
[2.     2.     2.     2.     1.8432 1.8424 1.832  1.0627 1.0405 0.8538
 0.7373 0.7345 0.051  0.0025]
entropy correction =  -0.04349135216198024
cycle= 15 E= -12.7899836200106  delta_E= 6.59e-06  |g|= 0.00359  |ddm|= 0.0132
HOMO:  -0.30213916640791577 LUMO:  -0.3002391068930657
Fermi energy:      -0.3017149847
[2.     2.     2.     2.     1.8441 1.8425 1.8321 1.0589 1.0424 0.8535
 0.7378 0.7352 0.051  0.0025]
entropy correction =  -0.04348200573903897
cycle= 16 E= -12.7899957704153  delta_E= -1.22e-05  |g|= 0.00115  |ddm|= 0.01
HOMO:  -0.3021546983913729 LUMO:  -0.30024186739282377
Fermi energy:      -0.3017223955
[2.     2.     2.     2.     1.8441 1.8424 1.8321 1.0592 1.0432 0.853
 0.7378 0.7348 0.051  0.0025]
entropy correction =  -0.043480432070502534
cycle= 17 E= -12.7899952849935  delta_E= 4.85e-07  |g|= 0.00139  |ddm|= 0.00416
HOMO:  -0.30219590268396634 LUMO:  -0.3002580517348141
Fermi energy:      -0.3017559330
[2.     2.     2.     2.     1.844  1.8427 1.8323 1.0614 1.044  0.8513
 0.7367 0.7342 0.0509 0.0025]
entropy correction =  -0.04346319671270098
cycle= 18 E= -12.7899922240221  delta_E= 3.06e-06  |g|= 0.00251  |ddm|= 0.00567
HOMO:  -0.30215599554257094 LUMO:  -0.3002321853028231
Fermi energy:      -0.3017234581
[2.     2.     2.     2.     1.8444 1.843  1.8319 1.0599 1.0432 0.852
 0.737  0.7352 0.0509 0.0025]
entropy correction =  -0.04346689485013653
cycle= 19 E= -12.7899963615646  delta_E= -4.14e-06  |g|= 0.000516  |ddm|= 0.00513
HOMO:  -0.30216657427131366 LUMO:  -0.3002424049987018
Fermi energy:      -0.3017307986
[2.     2.     2.     2.     1.8441 1.8426 1.832  1.0601 1.0436 0.8523
 0.7371 0.7348 0.0509 0.0025]
entropy correction =  -0.04347420701601437
cycle= 20 E= -12.7899966810132  delta_E= -3.19e-07  |g|= 5.84e-05  |ddm|= 0.0017
HOMO:  -0.30217226468712 LUMO:  -0.30024649575454126
Fermi energy:      -0.3017350916
[2.     2.     2.     2.     1.844  1.8427 1.8319 1.0603 1.0437 0.8522
 0.737  0.7348 0.0509 0.0025]
entropy correction =  -0.04347514624771394
cycle= 21 E= -12.7899966661925  delta_E= 1.48e-08  |g|= 0.000126  |ddm|= 0.000541
HOMO:  -0.30216823431753737 LUMO:  -0.3002433979434453
Fermi energy:      -0.3017321084
[2.     2.     2.     2.     1.8441 1.8426 1.832  1.0602 1.0436 0.8522
 0.7371 0.7348 0.0509 0.0025]
entropy correction =  -0.04347412035492655
cycle= 22 E= -12.789996684216  delta_E= -1.8e-08  |g|= 2.1e-05  |ddm|= 0.000406
HOMO:  -0.3021675045600956 LUMO:  -0.3002428417095344
Fermi energy:      -0.3017314572
[2.     2.     2.     2.     1.8441 1.8427 1.832  1.0602 1.0436 0.8522
 0.7371 0.7348 0.0509 0.0025]
entropy correction =  -0.043474109861778784
cycle= 23 E= -12.7899966812045  delta_E= 3.01e-09  |g|= 6.9e-05  |ddm|= 0.000174
HOMO:  -0.3021680322303853 LUMO:  -0.3002433491785513
Fermi energy:      -0.3017319933
[2.     2.     2.     2.     1.8441 1.8427 1.832  1.0602 1.0436 0.8522
 0.7371 0.7348 0.0509 0.0025]
entropy correction =  -0.04347419202843263
cycle= 24 E= -12.7899966846377  delta_E= -3.43e-09  |g|= 4.8e-06  |ddm|= 0.000135
HOMO:  -0.3021680724132947 LUMO:  -0.3002433343658732
Fermi energy:      -0.3017319779
[2.     2.     2.     2.     1.8441 1.8427 1.832  1.0602 1.0436 0.8522
 0.7371 0.7348 0.0509 0.0025]
entropy correction =  -0.043474188032690195
cycle= 25 E= -12.7899966846579  delta_E= -2.01e-11  |g|= 2.26e-06  |ddm|= 1.56e-05
HOMO:  -0.30216815103463973 LUMO:  -0.300243422277236
Fermi energy:      -0.3017320807
[2.     2.     2.     2.     1.8441 1.8427 1.832  1.0602 1.0436 0.8522
 0.7371 0.7348 0.0509 0.0025]
entropy correction =  -0.043474188031605576
Extra cycle  E= -12.7899966843225  delta_E= 3.35e-10  |g|= 2.16e-05  |ddm|= 4.71e-05
entropy correction =  -0.043474188031605576
rks_ao.ne_frozen =  0
Set gradient conv threshold to 3.16228e-05
Initial guess from hcore.
HOMO:  -2.5328017134564087 LUMO:  -2.531627487667926
Fermi energy:      -2.5356233422
[2.0000e+00 2.0000e+00 2.0000e+00 2.0000e+00 2.0000e+00 2.0000e+00
 2.0000e+00 1.9999e+00 7.2509e-01 6.2041e-01 2.7064e-01 2.4697e-01
 6.9012e-02 6.7394e-02 5.6342e-04]
tot grids = 190200
init E= -9.48505695017568
HOMO:  0.035861307074864596 LUMO:  0.03920733139441022
Fermi energy:       0.0350632059
[2.     2.     2.     2.     2.     2.     1.9957 0.9572 0.9204 0.6078
 0.5138 0.2732 0.2105 0.1965 0.1676 0.0596 0.0545 0.0431]
entropy correction =  -0.04289439997275969
cycle= 1 E= -11.1478558028149  delta_E= -1.66  |g|= 2.04  |ddm|= 7.42
HOMO:  -0.405706323882369 LUMO:  -0.4044129519073179
Fermi energy:      -0.4057128882
[2.0000e+00 2.0000e+00 2.0000e+00 2.0000e+00 2.0000e+00 2.0000e+00
 1.9867e+00 1.9859e+00 9.9934e-01 8.7073e-01 6.6473e-02 5.5672e-02
 2.2475e-02 8.8701e-03 2.8164e-03 9.6750e-04]
entropy correction =  -0.01837731992094957
cycle= 2 E= -10.7147412736642  delta_E= 0.433  |g|=  2.1  |ddm|= 7.14
HOMO:  -0.27268448308482673 LUMO:  -0.264161619751416
Fermi energy:      -0.2692163784
[2.0000e+00 2.0000e+00 2.0000e+00 2.0000e+00 2.0000e+00 2.0000e+00
 1.9665e+00 1.3697e+00 1.3335e+00 5.3359e-01 3.3352e-01 3.0897e-01
 5.6162e-02 5.1395e-02 4.6118e-02 5.5847e-04]
entropy correction =  -0.03165718796244845
cycle= 3 E= -12.5310656866736  delta_E= -1.82  |g|= 0.562  |ddm|= 2.13
HOMO:  -0.23800816806967215 LUMO:  -0.2283047114492289
Fermi energy:      -0.2335242742
[2.0000e+00 2.0000e+00 2.0000e+00 2.0000e+00 2.0000e+00 2.0000e+00
 1.9764e+00 1.8433e+00 1.4206e+00 5.2079e-01 1.4313e-01 8.9008e-02
 5.2454e-03 1.5235e-03]
entropy correction =  -0.019790830093092605
cycle= 4 E= -11.9368697379855  delta_E= 0.594  |g|= 0.978  |ddm|= 2.18
HOMO:  -0.21053281899710533 LUMO:  -0.20866943801343976
Fermi energy:      -0.2108579813
[2.     2.     2.     2.     2.     2.     1.8881 1.2405 0.9675 0.7846
 0.5701 0.2615 0.1709 0.0668 0.0465 0.0036]
entropy correction =  -0.037893417258140445
cycle= 5 E= -12.7141494245609  delta_E= -0.777  |g|= 0.211  |ddm|=  1.9
HOMO:  -0.19914944711842414 LUMO:  -0.19661658136755103
Fermi energy:      -0.1982209900
[2.0000e+00 2.0000e+00 2.0000e+00 2.0000e+00 2.0000e+00 2.0000e+00
 1.9200e+00 1.4115e+00 1.0926e+00 8.4092e-01 4.8534e-01 1.2446e-01
 6.9763e-02 4.2419e-02 1.2809e-02 1.8384e-04]
entropy correction =  -0.03224095822794741
cycle= 6 E= -12.5898654791189  delta_E= 0.124  |g|= 0.438  |ddm|= 1.43
HOMO:  -0.18891996585276183 LUMO:  -0.18606541516936023
Fermi energy:      -0.1886002432
[2.     2.     2.     2.     2.     2.     1.9023 1.1393 1.032  0.7518
 0.5649 0.3493 0.1263 0.0777 0.0519 0.0045]
entropy correction =  -0.03827860353519643
cycle= 7 E= -12.7234523127326  delta_E= -0.134  |g|= 0.168  |ddm|= 0.97
HOMO:  -0.18914397896402763 LUMO:  -0.18436087003082463
Fermi energy:      -0.1882543698
[2.     2.     2.     2.     2.     2.     1.9002 1.1147 1.0887 0.6292
 0.6091 0.4149 0.1153 0.0678 0.0545 0.0057]
entropy correction =  -0.03834813287153591
cycle= 8 E= -12.7158334696831  delta_E= 0.00762  |g|= 0.194  |ddm|= 0.573
HOMO:  -0.18895346972443072 LUMO:  -0.18537909544875103
Fermi energy:      -0.1883699404
[2.     2.     2.     2.     2.     2.     1.8952 1.0761 1.0583 0.7095
 0.6328 0.3589 0.1198 0.0786 0.0652 0.0055]
entropy correction =  -0.03887291824160949
cycle= 9 E= -12.7403325259838  delta_E= -0.0245  |g|= 0.091  |ddm|= 0.379
HOMO:  -0.1870307517663739 LUMO:  -0.1829452387290222
Fermi energy:      -0.1863466703
[2.     2.     2.     2.     2.     2.     1.8917 1.081  1.0683 0.6724
 0.6389 0.3726 0.1202 0.0804 0.0681 0.0063]
entropy correction =  -0.03902848489324444
cycle= 10 E= -12.7454265487465  delta_E= -0.00509  |g|= 0.0471  |ddm|= 0.288
HOMO:  -0.18777004281486917 LUMO:  -0.1837589703805681
Fermi energy:      -0.1871277037
[2.     2.     2.     2.     2.     2.     1.8927 1.0902 1.0641 0.6753
 0.6344 0.3726 0.1167 0.0784 0.0694 0.0062]
entropy correction =  -0.038938539197920646
cycle= 11 E= -12.7455419472456  delta_E= -0.000115  |g|= 0.0459  |ddm|= 0.149
HOMO:  -0.1878034609896185 LUMO:  -0.1838817627906895
Fermi energy:      -0.1872829833
[2.     2.     2.     2.     2.     2.     1.8927 1.0807 1.052  0.6724
 0.6588 0.3726 0.1166 0.0754 0.0725 0.0062]
entropy correction =  -0.03903553110287041
cycle= 12 E= -12.7471956830419  delta_E= -0.00165  |g|= 0.00869  |ddm|= 0.116
HOMO:  -0.18786129942281657 LUMO:  -0.183975725039046
Fermi energy:      -0.1873147439
[2.     2.     2.     2.     2.     2.     1.8927 1.0777 1.0546 0.678
 0.6551 0.3718 0.1161 0.0763 0.0715 0.0062]
entropy correction =  -0.03902643269187168
cycle= 13 E= -12.747244867751  delta_E= -4.92e-05  |g|= 0.0034  |ddm|= 0.0234
HOMO:  -0.18771132324968462 LUMO:  -0.18374080206028084
Fermi energy:      -0.1871566623
[2.     2.     2.     2.     2.     2.     1.8928 1.0799 1.0554 0.6711
 0.6579 0.373  0.1156 0.0759 0.0722 0.0062]
entropy correction =  -0.03901827379008175
cycle= 14 E= -12.7472523403535  delta_E= -7.47e-06  |g|= 0.00218  |ddm|= 0.0118
HOMO:  -0.18781597584782458 LUMO:  -0.18388629269784798
Fermi energy:      -0.1872726538
[2.     2.     2.     2.     2.     2.     1.8928 1.0794 1.0543 0.6737
 0.6585 0.3719 0.1155 0.0758 0.072  0.0062]
entropy correction =  -0.039014105762452116
cycle= 15 E= -12.7472552241662  delta_E= -2.88e-06  |g|= 0.000951  |ddm|= 0.0059
HOMO:  -0.18782439805157664 LUMO:  -0.18389487657361206
Fermi energy:      -0.1872798704
[2.     2.     2.     2.     2.     2.     1.8928 1.0793 1.0544 0.6739
 0.6586 0.3718 0.1154 0.0758 0.0719 0.0062]
entropy correction =  -0.03901181983753558
cycle= 16 E= -12.7472558617388  delta_E= -6.38e-07  |g|= 0.000363  |ddm|= 0.00207
HOMO:  -0.18781344027484603 LUMO:  -0.18388338295523587
Fermi energy:      -0.1872688442
[2.     2.     2.     2.     2.     2.     1.8928 1.0795 1.0544 0.6738
 0.6583 0.3718 0.1154 0.0758 0.072  0.0062]
entropy correction =  -0.039011298368755665
cycle= 17 E= -12.7472559600115  delta_E= -9.83e-08  |g|= 0.000114  |ddm|= 0.000758
HOMO:  -0.18781609546412176 LUMO:  -0.18388593882047735
Fermi energy:      -0.1872715348
[2.     2.     2.     2.     2.     2.     1.8928 1.0794 1.0544 0.6738
 0.6584 0.3718 0.1154 0.0758 0.072  0.0062]
entropy correction =  -0.03901125356920867
cycle= 18 E= -12.7472559681918  delta_E= -8.18e-09  |g|= 5.66e-05  |ddm|= 0.000289
HOMO:  -0.18781644111287776 LUMO:  -0.18388671785458105
Fermi energy:      -0.1872719741
[2.     2.     2.     2.     2.     2.     1.8928 1.0794 1.0544 0.6738
 0.6584 0.3718 0.1154 0.0758 0.072  0.0062]
entropy correction =  -0.03901108144069726
cycle= 19 E= -12.7472559673352  delta_E= 8.57e-10  |g|= 6.59e-05  |ddm|= 0.000215
HOMO:  -0.18781647152857103 LUMO:  -0.18388621427435523
Fermi energy:      -0.1872718409
[2.     2.     2.     2.     2.     2.     1.8928 1.0794 1.0544 0.6738
 0.6584 0.3718 0.1154 0.0758 0.072  0.0062]
entropy correction =  -0.03901110592564338
cycle= 20 E= -12.7472559683262  delta_E= -9.91e-10  |g|= 5.59e-05  |ddm|= 0.000213
HOMO:  -0.18781649916253237 LUMO:  -0.18388619299318573
Fermi energy:      -0.1872718281
[2.     2.     2.     2.     2.     2.     1.8928 1.0794 1.0544 0.6738
 0.6584 0.3718 0.1154 0.0758 0.072  0.0062]
entropy correction =  -0.03901112070598087
cycle= 21 E= -12.747255967942  delta_E= 3.84e-10  |g|= 6.04e-05  |ddm|= 0.000224
HOMO:  -0.18781605767198603 LUMO:  -0.18388590107975164
Fermi energy:      -0.1872714600
[2.     2.     2.     2.     2.     2.     1.8928 1.0794 1.0544 0.6738
 0.6584 0.3718 0.1154 0.0758 0.072  0.0062]
entropy correction =  -0.039011129663598126
cycle= 22 E= -12.7472559709858  delta_E= -3.04e-09  |g|= 3.1e-06  |ddm|= 0.00014
HOMO:  -0.18781608678736117 LUMO:  -0.18388597259536804
Fermi energy:      -0.1872714889
[2.     2.     2.     2.     2.     2.     1.8928 1.0794 1.0544 0.6738
 0.6584 0.3718 0.1154 0.0758 0.072  0.0062]
entropy correction =  -0.03901112264875353
cycle= 23 E= -12.7472559709904  delta_E= -4.54e-12  |g|= 1.8e-06  |ddm|= 9.16e-06
HOMO:  -0.18781610615214836 LUMO:  -0.1838859165353227
Fermi energy:      -0.1872715067
[2.     2.     2.     2.     2.     2.     1.8928 1.0794 1.0544 0.6738
 0.6584 0.3718 0.1154 0.0758 0.072  0.0062]
entropy correction =  -0.039011118137089754
Extra cycle  E= -12.7472559709058  delta_E= 8.45e-11  |g|= 1.02e-05  |ddm|= 2.43e-05
degenerate subspace detected:
nsub = 8
subspace 1:
5, 6, 7, 
subspace 2:
8, 9, 
subspace 3:
11, 12, 
subspace 4:
15, 16, 
subspace 5:
20, 21, 
subspace 6:
25, 26, 
subspace 7:
27, 28, 
subspace 8:
41, 42, 

 Adding contributions from fluctuation of occupation numbers.
degenerate subspace detected:
nsub = 8
subspace 1:
1, 2, 
subspace 2:
5, 6, 
subspace 3:
8, 9, 
subspace 4:
10, 11, 
subspace 5:
14, 15, 
subspace 6:
20, 21, 22, 
subspace 7:
30, 31, 
subspace 8:
38, 39, 

 Adding contributions from fluctuation of occupation numbers.
entropy correction =  -0.039011118137089754
2-norm (grad),       max(grad):
0.14441075889934832 ,  0.011914083243902113
time of hessian construction : 25.750  (cpu),  0.670  (wall) 
time of hessian construction : 20.250  (cpu),  0.508  (wall) 
f =  0.010427233642942853
|umat| =  2.5354064290359437
rks_ao.ne_frozen =  0
Set gradient conv threshold to 3.16228e-05
Initial guess from hcore.
HOMO:  -3.619635635154998 LUMO:  -3.5816739427402933
Fermi energy:      -3.6006547892
[2.     2.     2.     2.     2.     2.     2.     2.     1.9561 0.0439]
tot grids = 190200
init E= -32.819289870951
HOMO:  -0.4726597465656282 LUMO:  -0.4511162280813018
Fermi energy:      -0.4621589504
[2.     2.     2.     2.     2.     2.     2.     2.     1.7818 0.198
 0.0202]
entropy correction =  -0.007239036602742124
cycle= 1 E= -34.8302476465407  delta_E= -2.01  |g|= 2.01  |ddm|= 35.8
HOMO:  -1.1513609303022945 LUMO:  -1.083804252799939
Fermi energy:      -1.1175825049
[2.     2.     2.     2.     2.     2.     2.     2.     1.9977 0.0023]
entropy correction =  -0.0001804033935147122
cycle= 2 E= -36.0208809706711  delta_E= -1.19  |g|= 1.03  |ddm|= 19.3
HOMO:  -0.8354874489362549 LUMO:  -0.7799451656129787
Fermi energy:      -0.8077163799
[2.     2.     2.     2.     2.     2.     2.     2.     1.9923 0.0077]
entropy correction =  -0.000505656439135092
cycle= 3 E= -36.3127737627059  delta_E= -0.292  |g|= 0.0747  |ddm|= 7.08
HOMO:  -0.8480793725065663 LUMO:  -0.7901120133845182
Fermi energy:      -0.8190956884
[2.     2.     2.     2.     2.     2.     2.     2.     1.9939 0.0061]
entropy correction =  -0.0004117489126947303
cycle= 4 E= -36.3138141364393  delta_E= -0.00104  |g|= 0.0458  |ddm|= 0.408
HOMO:  -0.8501541524753541 LUMO:  -0.7907652202615448
Fermi energy:      -0.8204596965
[2.     2.     2.     2.     2.     2.     2.     2.     1.9947 0.0053]
entropy correction =  -0.0003647947807912011
cycle= 5 E= -36.3145465162798  delta_E= -0.000732  |g|= 0.00703  |ddm|= 0.169
HOMO:  -0.8502012413980357 LUMO:  -0.79170177587712
Fermi energy:      -0.8209515167
[2.     2.     2.     2.     2.     2.     2.     2.     1.9943 0.0057]
entropy correction =  -0.00039352783575491234
cycle= 6 E= -36.3145610146982  delta_E= -1.45e-05  |g|= 0.00273  |ddm|= 0.034
HOMO:  -0.8504198235627349 LUMO:  -0.7915693780493069
Fermi energy:      -0.8209946079
[2.     2.     2.     2.     2.     2.     2.     2.     1.9945 0.0055]
entropy correction =  -0.00038193711662248906
cycle= 7 E= -36.3145631587927  delta_E= -2.14e-06  |g|= 0.00027  |ddm|= 0.0101
HOMO:  -0.8504465971335083 LUMO:  -0.791591913383241
Fermi energy:      -0.8210192624
[2.     2.     2.     2.     2.     2.     2.     2.     1.9945 0.0055]
entropy correction =  -0.0003817992003521933
cycle= 8 E= -36.3145631817496  delta_E= -2.3e-08  |g|= 4.56e-05  |ddm|= 0.00148
HOMO:  -0.8504517793083786 LUMO:  -0.7915962283304978
Fermi energy:      -0.8210240109
[2.     2.     2.     2.     2.     2.     2.     2.     1.9945 0.0055]
entropy correction =  -0.00038177098279323424
cycle= 9 E= -36.3145631824321  delta_E= -6.83e-10  |g|= 1.53e-05  |ddm|= 0.000235
HOMO:  -0.8504523721858178 LUMO:  -0.7915963047627362
Fermi energy:      -0.8210243456
[2.     2.     2.     2.     2.     2.     2.     2.     1.9945 0.0055]
entropy correction =  -0.0003817541808575565
Extra cycle  E= -36.3145631824249  delta_E= 7.23e-12  |g|= 1.63e-05  |ddm|= 0.000108
entropy correction =  -0.0003817541808575565
rks_ao.ne_frozen =  0
Set gradient conv threshold to 3.16228e-05
Initial guess from hcore.
HOMO:  -2.765958867355427 LUMO:  -2.7402757445586765
Fermi energy:      -2.7530650025
[2.0000e+00 2.0000e+00 2.0000e+00 2.0000e+00 2.0000e+00 2.0000e+00
 2.0000e+00 1.9960e+00 1.8590e+00 1.4380e-01 9.5661e-04 2.3147e-04]
tot grids = 190200
init E= -36.0355707821321
HOMO:  -0.4458303812773491 LUMO:  -0.4249157090123824
Fermi energy:      -0.4355746541
[2.     2.     2.     2.     2.     2.     2.     2.     1.7721 0.2121
 0.0158]
entropy correction =  -0.007389042161448214
cycle= 1 E= -37.3256910763057  delta_E= -1.29  |g|= 0.98  |ddm|= 17.4
HOMO:  -0.6449660057859822 LUMO:  -0.5989903210456281
Fermi energy:      -0.6219739845
[2.     2.     2.     2.     2.     2.     2.     2.     1.9801 0.02  ]
entropy correction =  -0.001119950640159013
cycle= 2 E= -37.239682825343  delta_E= 0.086  |g|= 1.12  |ddm|= 7.67
HOMO:  -0.5756709074802898 LUMO:  -0.5730520611710381
Fermi energy:      -0.5745215497
[2.     2.     2.     2.     2.     2.     2.     2.     1.1144 0.8541
 0.0315]
entropy correction =  -0.014500059107657589
cycle= 3 E= -37.5826125007528  delta_E= -0.343  |g|= 0.333  |ddm|= 5.37
HOMO:  -0.5777198732961468 LUMO:  -0.5486940612071384
Fermi energy:      -0.5635743066
[2.     2.     2.     2.     2.     2.     2.     2.     1.8885 0.097
 0.0145]
entropy correction =  -0.004522567954237596
cycle= 4 E= -37.5972454567247  delta_E= -0.0146  |g|= 0.319  |ddm|= 3.57
HOMO:  -0.5648045217042158 LUMO:  -0.5515204898519639
Fermi energy:      -0.5596172262
[2.     2.     2.     2.     2.     2.     2.     2.     1.4767 0.3306
 0.1927]
entropy correction =  -0.01340099749531709
cycle= 5 E= -37.6306322436829  delta_E= -0.0334  |g|= 0.0825  |ddm|= 1.24
HOMO:  -0.5665597878443487 LUMO:  -0.5524483509703683
Fermi energy:      -0.5602066013
[2.     2.     2.     2.     2.     2.     2.     2.     1.5617 0.3497
 0.0886]
entropy correction =  -0.011707042145530087
cycle= 6 E= -37.6323989429233  delta_E= -0.00177  |g|= 0.0579  |ddm|= 0.639
HOMO:  -0.5652640636498724 LUMO:  -0.552321692302997
Fermi energy:      -0.5601774807
[2.     2.     2.     2.     2.     2.     2.     2.     1.4689 0.3441
 0.187 ]
entropy correction =  -0.013484743281943963
cycle= 7 E= -37.6338985094194  delta_E= -0.0015  |g|= 0.00914  |ddm|= 0.326
HOMO:  -0.5653265919742482 LUMO:  -0.5520835433843382
Fermi energy:      -0.5600391788
[2.     2.     2.     2.     2.     2.     2.     2.     1.4844 0.3385
 0.1771]
entropy correction =  -0.01324603847912982
cycle= 8 E= -37.6339427465809  delta_E= -4.42e-05  |g|= 0.0026  |ddm|= 0.12
HOMO:  -0.5652595616019458 LUMO:  -0.5520745369368243
Fermi energy:      -0.5600365282
[2.     2.     2.     2.     2.     2.     2.     2.     1.4795 0.3381
 0.1824]
entropy correction =  -0.01333051510511771
cycle= 9 E= -37.633946959048  delta_E= -4.21e-06  |g|= 0.000653  |ddm|= 0.0275
HOMO:  -0.5652689811350383 LUMO:  -0.5520797995266092
Fermi energy:      -0.5600452553
[2.     2.     2.     2.     2.     2.     2.     2.     1.4795 0.3379
 0.1826]
entropy correction =  -0.013330310644488403
cycle= 10 E= -37.6339471158601  delta_E= -1.57e-07  |g|= 0.000297  |ddm|= 0.00433
HOMO:  -0.5652771316896501 LUMO:  -0.5520828473312308
Fermi energy:      -0.5600467728
[2.    2.    2.    2.    2.    2.    2.    2.    1.48  0.338 0.182]
entropy correction =  -0.013321466077478259
cycle= 11 E= -37.6339471626779  delta_E= -4.68e-08  |g|= 2.84e-05  |ddm|= 0.00142
HOMO:  -0.5652769705598237 LUMO:  -0.5520819617147938
Fermi energy:      -0.5600460257
[2.     2.     2.     2.     2.     2.     2.     2.     1.4801 0.338
 0.1819]
entropy correction =  -0.013320738902679681
cycle= 12 E= -37.633947162933  delta_E= -2.55e-10  |g|= 1.48e-05  |ddm|= 0.000187
HOMO:  -0.5652766167580293 LUMO:  -0.5520822790972
Fermi energy:      -0.5600460150
[2.     2.     2.     2.     2.     2.     2.     2.     1.4801 0.338
 0.1819]
entropy correction =  -0.01332111552311728
Extra cycle  E= -37.6339471625538  delta_E= 3.79e-10  |g|= 3.39e-05  |ddm|= 0.000225
 Adding contributions from fluctuation of occupation numbers.
degenerate subspace detected:
nsub = 1
subspace 1:
22, 23, 

 Adding contributions from fluctuation of occupation numbers.
entropy correction =  -0.01332111552311728
2-norm (grad),       max(grad):
258.10183277511504 ,  56.33020654259403
time of hessian construction : 12.260  (cpu),  0.308  (wall) 
time of hessian construction : 13.080  (cpu),  0.328  (wall) 
f =  33308.278040936726
|umat| =  2.0325905847340806
rks_ao.ne_frozen =  0
Set gradient conv threshold to 3.16228e-05
Initial guess from hcore.
HOMO:  -3.484196139360508 LUMO:  -3.2726092752851437
Fermi energy:      -3.3765039466
[2. 2. 2. 2. 2. 2. 2. 2. 2.]
tot grids = 190200
init E= -9.51908772910671
HOMO:  -0.046645339712227785 LUMO:  -0.031170868930012932
Fermi energy:      -0.0382665703
[2.0000e+00 2.0000e+00 2.0000e+00 2.0000e+00 2.0000e+00 2.0000e+00
 1.9636e+00 1.9616e+00 1.6847e+00 3.8959e-01 2.3281e-04 2.1861e-04]
entropy correction =  -0.011170996085732021
cycle= 1 E= -8.02736612207932  delta_E= 1.49  |g|= 3.15  |ddm|= 8.65
HOMO:  -0.8754954435929897 LUMO:  -0.7295676259422802
Fermi energy:      -0.8009875129
[2. 2. 2. 2. 2. 2. 2. 2. 2.]
entropy correction =  -2.0911872424406872e-07
cycle= 2 E= -10.3672238919634  delta_E= -2.34  |g|= 2.24  |ddm|= 7.86
HOMO:  -0.3978224544435501 LUMO:  -0.37296232652610195
Fermi energy:      -0.3855632706
[2.     2.     2.     2.     1.9955 1.9824 1.9814 1.8472 1.8414 0.1489
 0.1489 0.0418 0.0066 0.0059]
entropy correction =  -0.013397683361405439
cycle= 3 E= -12.6862468449206  delta_E= -2.32  |g|= 0.47  |ddm|=  5.3
HOMO:  -0.2959194887526951 LUMO:  -0.2953802149911931
Fermi energy:      -0.2974216636
[2.0000e+00 2.0000e+00 2.0000e+00 2.0000e+00 1.8895e+00 1.8860e+00
 1.7729e+00 1.2669e+00 8.5090e-01 7.9864e-01 7.5372e-01 6.8763e-01
 9.2091e-02 1.7691e-03]
entropy correction =  -0.042979603332282894
cycle= 4 E= -12.777215513846  delta_E= -0.091  |g|= 0.113  |ddm|= 1.51
HOMO:  -0.3089053802806834 LUMO:  -0.30220862953682287
Fermi energy:      -0.3060626318
[2.0000e+00 2.0000e+00 2.0000e+00 2.0000e+00 1.9438e+00 1.8955e+00
 1.8895e+00 1.3959e+00 1.2769e+00 6.3261e-01 5.1381e-01 4.1566e-01
 3.4806e-02 1.6094e-03]
entropy correction =  -0.03613022427620602
cycle= 5 E= -12.5880347399669  delta_E= 0.189  |g|= 0.556  |ddm|= 1.16
HOMO:  -0.3114228253414595 LUMO:  -0.306048066846898
Fermi energy:      -0.3091594721
[2.     2.     2.     2.     1.9043 1.8683 1.8384 1.2426 1.2225 0.6985
 0.6056 0.578  0.0398 0.002 ]
entropy correction =  -0.040145839931983666
cycle= 6 E= -12.7778176464939  delta_E= -0.19  |g|= 0.137  |ddm|= 0.843
HOMO:  -0.3114182518693672 LUMO:  -0.3064042459670478
Fermi energy:      -0.3091020233
[2.     2.     2.     2.     1.8827 1.8491 1.8448 1.2549 1.2276 0.7366
 0.5906 0.5706 0.041  0.0021]
entropy correction =  -0.04062113170466758
cycle= 7 E= -12.7681260172617  delta_E= 0.00969  |g|= 0.184  |ddm|= 0.444
HOMO:  -0.3091801923854057 LUMO:  -0.30622551276653254
Fermi energy:      -0.3079022272
[2.     2.     2.     2.     1.8471 1.8419 1.8248 1.1761 1.1271 0.8339
 0.6605 0.6381 0.0481 0.0023]
entropy correction =  -0.04268267692388709
cycle= 8 E= -12.784731929394  delta_E= -0.0166  |g|= 0.0885  |ddm|= 0.365
HOMO:  -0.3073561838154149 LUMO:  -0.30474099989336584
Fermi energy:      -0.3063318481
[2.     2.     2.     2.     1.8526 1.8411 1.8289 1.135  1.1021 0.8422
 0.6807 0.6658 0.0493 0.0023]
entropy correction =  -0.04287316204877021
cycle= 9 E= -12.7820204520933  delta_E= 0.00271  |g|= 0.11  |ddm|=  0.3
HOMO:  -0.30074673488360637 LUMO:  -0.3003885888120169
Fermi energy:      -0.3008863958
[2.     2.     2.     2.     1.8832 1.8484 1.8088 1.0229 0.986  0.9503
 0.777  0.6696 0.0517 0.0022]
entropy correction =  -0.04318428112811443
cycle= 10 E= -12.7843162869855  delta_E= -0.0023  |g|= 0.0756  |ddm|= 0.321
HOMO:  -0.3002748687064311 LUMO:  -0.29981052206349706
Fermi energy:      -0.3006728790
[2.     2.     2.     2.     1.8674 1.8525 1.8313 1.0401 0.9602 0.914
 0.754  0.728  0.0502 0.0023]
entropy correction =  -0.043151839981483704
cycle= 11 E= -12.7878839195552  delta_E= -0.00357  |g|= 0.0441  |ddm|= 0.289
HOMO:  -0.3018258494219798 LUMO:  -0.2999507876900544
Fermi energy:      -0.3014367993
[2.     2.     2.     2.     1.8457 1.8406 1.8307 1.0678 1.0389 0.8525
 0.7374 0.7331 0.051  0.0025]
entropy correction =  -0.04348968969515742
cycle= 12 E= -12.7899461589018  delta_E= -0.00206  |g|= 0.00672  |ddm|= 0.134
HOMO:  -0.3025289661390653 LUMO:  -0.30042424260243455
Fermi energy:      -0.3019939078
[2.     2.     2.     2.     1.8486 1.837  1.8296 1.0752 1.0535 0.8443
 0.7342 0.7247 0.0504 0.0025]
entropy correction =  -0.04344317130952331
cycle= 13 E= -12.7898850954643  delta_E= 6.11e-05  |g|= 0.0102  |ddm|= 0.0473
HOMO:  -0.3022610605200443 LUMO:  -0.30028595520552315
Fermi energy:      -0.3017935494
[2.     2.     2.     2.     1.8446 1.8427 1.8317 1.0611 1.0467 0.8504
 0.7369 0.7326 0.0508 0.0025]
entropy correction =  -0.0434560714401706
cycle= 14 E= -12.7899904196083  delta_E= -0.000105  |g|= 0.00276  |ddm|= 0.0318
HOMO:  -0.30214596610699634 LUMO:  -0.30026827614766827
Fermi energy:      -0.3017404608
[2.     2.     2.     2.     1.8432 1.8424 1.832  1.0627 1.0405 0.8538
 0.7373 0.7345 0.051  0.0025]
entropy correction =  -0.04349131855096428
cycle= 15 E= -12.7899838595202  delta_E= 6.56e-06  |g|= 0.00359  |ddm|= 0.0132
HOMO:  -0.30213956171527173 LUMO:  -0.3002394613678996
Fermi energy:      -0.3017153260
[2.     2.     2.     2.     1.8441 1.8425 1.8321 1.0589 1.0424 0.8535
 0.7378 0.7352 0.051  0.0025]
entropy correction =  -0.043481971476434456
cycle= 16 E= -12.7899960160869  delta_E= -1.22e-05  |g|= 0.00112  |ddm|= 0.00998
HOMO:  -0.3021551864830924 LUMO:  -0.3002422585432961
Fermi energy:      -0.3017228365
[2.     2.     2.     2.     1.8441 1.8424 1.8321 1.0592 1.0432 0.853
 0.7378 0.7348 0.051  0.0025]
entropy correction =  -0.04348031574997961
cycle= 17 E= -12.7899954965461  delta_E= 5.2e-07  |g|= 0.00139  |ddm|= 0.00413
HOMO:  -0.30219553437447455 LUMO:  -0.30025796170126234
Fermi energy:      -0.3017556878
[2.     2.     2.     2.     1.8441 1.8427 1.8323 1.0614 1.044  0.8513
 0.7367 0.7342 0.0509 0.0025]
entropy correction =  -0.04346327524256644
cycle= 18 E= -12.7899926297287  delta_E= 2.87e-06  |g|= 0.00245  |ddm|= 0.00558
HOMO:  -0.3021561592662887 LUMO:  -0.30023247002975195
Fermi energy:      -0.3017236160
[2.     2.     2.     2.     1.8444 1.843  1.8319 1.0599 1.0432 0.852
 0.737  0.7352 0.0509 0.0025]
entropy correction =  -0.043467014821347946
cycle= 19 E= -12.7899965787089  delta_E= -3.95e-06  |g|= 0.000512  |ddm|= 0.00503
HOMO:  -0.30216674197971694 LUMO:  -0.3002426583123451
Fermi energy:      -0.3017309634
[2.     2.     2.     2.     1.8441 1.8426 1.832  1.0601 1.0436 0.8523
 0.7371 0.7348 0.0509 0.0025]
entropy correction =  -0.043474256721326106
cycle= 20 E= -12.7899968937405  delta_E= -3.15e-07  |g|= 5.52e-05  |ddm|= 0.00168
HOMO:  -0.30217199710219317 LUMO:  -0.30024644865173644
Fermi energy:      -0.3017349528
[2.     2.     2.     2.     1.844  1.8427 1.8319 1.0603 1.0437 0.8522
 0.737  0.7348 0.0509 0.0025]
entropy correction =  -0.04347510399649334
cycle= 21 E= -12.7899968809441  delta_E= 1.28e-08  |g|= 0.000117  |ddm|= 0.000509
HOMO:  -0.30216828372640275 LUMO:  -0.30024359023854286
Fermi energy:      -0.3017322120
[2.     2.     2.     2.     1.8441 1.8427 1.832  1.0602 1.0436 0.8522
 0.7371 0.7348 0.0509 0.0025]
entropy correction =  -0.04347413776399916
cycle= 22 E= -12.7899968965455  delta_E= -1.56e-08  |g|= 2.16e-05  |ddm|= 0.000381
HOMO:  -0.302167676805752 LUMO:  -0.3002430841177035
Fermi energy:      -0.3017316088
[2.     2.     2.     2.     1.8441 1.8427 1.832  1.0601 1.0436 0.8522
 0.7371 0.7348 0.0509 0.0025]
entropy correction =  -0.04347415356396318
cycle= 23 E= -12.7899968936561  delta_E= 2.89e-09  |g|= 6.83e-05  |ddm|= 0.00017
HOMO:  -0.30216813057591707 LUMO:  -0.3002435568517928
Fermi energy:      -0.3017321131
[2.     2.     2.     2.     1.8441 1.8427 1.832  1.0602 1.0436 0.8522
 0.7371 0.7348 0.0509 0.0025]
entropy correction =  -0.04347421834031739
cycle= 24 E= -12.7899968969822  delta_E= -3.33e-09  |g|= 4.32e-06  |ddm|= 0.000131
HOMO:  -0.30216817459369855 LUMO:  -0.30024354845969814
Fermi energy:      -0.3017321055
[2.     2.     2.     2.     1.8441 1.8427 1.832  1.0602 1.0436 0.8522
 0.7371 0.7348 0.0509 0.0025]
entropy correction =  -0.043474213873303004
cycle= 25 E= -12.7899968969985  delta_E= -1.63e-11  |g|= 1.96e-06  |ddm|= 1.38e-05
HOMO:  -0.30216821859168824 LUMO:  -0.3002436128079264
Fermi energy:      -0.3017321787
[2.     2.     2.     2.     1.8441 1.8427 1.832  1.0602 1.0436 0.8522
 0.7371 0.7348 0.0509 0.0025]
entropy correction =  -0.04347421730312002
Extra cycle  E= -12.7899968967403  delta_E= 2.58e-10  |g|= 1.89e-05  |ddm|= 4.14e-05
entropy correction =  -0.04347421730312002
rks_ao.ne_frozen =  0
Set gradient conv threshold to 3.16228e-05
Initial guess from hcore.
HOMO:  -2.5328016792940486 LUMO:  -2.5316275883101063
Fermi energy:      -2.5356233641
[2.0000e+00 2.0000e+00 2.0000e+00 2.0000e+00 2.0000e+00 2.0000e+00
 2.0000e+00 1.9999e+00 7.2509e-01 6.2041e-01 2.7064e-01 2.4696e-01
 6.9011e-02 6.7393e-02 5.6344e-04]
tot grids = 190200
init E= -9.48505611659959
HOMO:  0.03586124412122261 LUMO:  0.039207377326558754
Fermi energy:       0.0350632224
[2.     2.     2.     2.     2.     2.     1.9957 0.9571 0.9204 0.6078
 0.5138 0.2732 0.2105 0.1965 0.1676 0.0596 0.0545 0.0431]
entropy correction =  -0.04289439484396805
cycle= 1 E= -11.1478555170585  delta_E= -1.66  |g|= 2.04  |ddm|= 7.42
HOMO:  -0.40570648871743575 LUMO:  -0.4044130722658589
Fermi energy:      -0.4057130236
[2.0000e+00 2.0000e+00 2.0000e+00 2.0000e+00 2.0000e+00 2.0000e+00
 1.9867e+00 1.9859e+00 9.9935e-01 8.7073e-01 6.6470e-02 5.5675e-02
 2.2474e-02 8.8700e-03 2.8164e-03 9.6748e-04]
entropy correction =  -0.018377309451107434
cycle= 2 E= -10.7147396119498  delta_E= 0.433  |g|=  2.1  |ddm|= 7.14
HOMO:  -0.27268496399719516 LUMO:  -0.26416214924305
Fermi energy:      -0.2692166860
[2.0000e+00 2.0000e+00 2.0000e+00 2.0000e+00 2.0000e+00 2.0000e+00
 1.9665e+00 1.3697e+00 1.3336e+00 5.3360e-01 3.3352e-01 3.0894e-01
 5.6157e-02 5.1384e-02 4.6124e-02 5.5846e-04]
entropy correction =  -0.03165684722372617
cycle= 3 E= -12.5310498994432  delta_E= -1.82  |g|= 0.562  |ddm|= 2.13
HOMO:  -0.2380211098102035 LUMO:  -0.22829823260189477
Fermi energy:      -0.2335281005
[2.0000e+00 2.0000e+00 2.0000e+00 2.0000e+00 2.0000e+00 2.0000e+00
 1.9764e+00 1.8432e+00 1.4213e+00 5.2000e-01 1.4291e-01 8.9340e-02
 5.2320e-03 1.5256e-03]
entropy correction =  -0.019785986774933272
cycle= 4 E= -11.9368796377793  delta_E= 0.594  |g|= 0.978  |ddm|= 2.18
HOMO:  -0.21052985940514365 LUMO:  -0.20867144695850898
Fermi energy:      -0.2108577360
[2.     2.     2.     2.     2.     2.     1.8881 1.2406 0.9672 0.7848
 0.57   0.2615 0.171  0.0667 0.0465 0.0036]
entropy correction =  -0.03789344608627999
cycle= 5 E= -12.7141304181367  delta_E= -0.777  |g|= 0.211  |ddm|=  1.9
HOMO:  -0.19913163278312584 LUMO:  -0.19662501701481883
Fermi energy:      -0.1982185924
[2.0000e+00 2.0000e+00 2.0000e+00 2.0000e+00 2.0000e+00 2.0000e+00
 1.9201e+00 1.4109e+00 1.0911e+00 8.4198e-01 4.8640e-01 1.2411e-01
 6.9941e-02 4.2523e-02 1.2849e-02 1.8323e-04]
entropy correction =  -0.032253066825764634
cycle= 6 E= -12.5900953475995  delta_E= 0.124  |g|= 0.438  |ddm|= 1.43
HOMO:  -0.18892193159328455 LUMO:  -0.18605235682844162
Fermi energy:      -0.1885960170
[2.     2.     2.     2.     2.     2.     1.9023 1.1391 1.0326 0.751
 0.5652 0.3495 0.1261 0.0778 0.052  0.0045]
entropy correction =  -0.03827924519079298
cycle= 7 E= -12.7234424891568  delta_E= -0.133  |g|= 0.168  |ddm|= 0.969
HOMO:  -0.18914278682493182 LUMO:  -0.18435337361312382
Fermi energy:      -0.1882507394
[2.     2.     2.     2.     2.     2.     1.9002 1.1147 1.089  0.6289
 0.6089 0.4151 0.1152 0.0678 0.0545 0.0057]
entropy correction =  -0.038347743638861516
cycle= 8 E= -12.7158265181047  delta_E= 0.00762  |g|= 0.194  |ddm|= 0.573
HOMO:  -0.18895440877239972 LUMO:  -0.18537073573840626
Fermi energy:      -0.1883673606
[2.     2.     2.     2.     2.     2.     1.8952 1.0764 1.0586 0.709
 0.6325 0.3591 0.1197 0.0786 0.0653 0.0055]
entropy correction =  -0.03887286046313157
cycle= 9 E= -12.7403627364188  delta_E= -0.0245  |g|= 0.0908  |ddm|= 0.379
HOMO:  -0.18703114646717958 LUMO:  -0.18294189349576928
Fermi energy:      -0.1863461725
[2.     2.     2.     2.     2.     2.     1.8917 1.0812 1.0684 0.6721
 0.6387 0.3727 0.1202 0.0804 0.0682 0.0063]
entropy correction =  -0.039027664350531385
cycle= 10 E= -12.745424394127  delta_E= -0.00506  |g|= 0.0472  |ddm|= 0.288
HOMO:  -0.18776807815715377 LUMO:  -0.1837587346335776
Fermi energy:      -0.1871245865
[2.     2.     2.     2.     2.     2.     1.8927 1.09   1.0643 0.6756
 0.6343 0.3725 0.1167 0.0785 0.0694 0.0062]
entropy correction =  -0.03893856454461809
cycle= 11 E= -12.7455230354691  delta_E= -9.86e-05  |g|= 0.0461  |ddm|= 0.15
HOMO:  -0.18780292191945938 LUMO:  -0.18388065591192448
Fermi energy:      -0.1872825785
[2.     2.     2.     2.     2.     2.     1.8927 1.0807 1.052  0.6724
 0.6589 0.3727 0.1166 0.0754 0.0725 0.0062]
entropy correction =  -0.039035777795920455
cycle= 12 E= -12.7471959618136  delta_E= -0.00167  |g|= 0.00864  |ddm|= 0.116
HOMO:  -0.1878614886893381 LUMO:  -0.1839762932781015
Fermi energy:      -0.1873149644
[2.     2.     2.     2.     2.     2.     1.8927 1.0777 1.0546 0.678
 0.655  0.3718 0.1161 0.0763 0.0715 0.0062]
entropy correction =  -0.03902656838716007
cycle= 13 E= -12.7472444286766  delta_E= -4.85e-05  |g|= 0.00342  |ddm|= 0.0234
HOMO:  -0.18771168391633417 LUMO:  -0.18374130928488017
Fermi energy:      -0.1871570846
[2.     2.     2.     2.     2.     2.     1.8928 1.0799 1.0554 0.6711
 0.6579 0.373  0.1156 0.0759 0.0722 0.0062]
entropy correction =  -0.039018363720202925
cycle= 14 E= -12.7472519916478  delta_E= -7.56e-06  |g|= 0.00218  |ddm|= 0.0119
HOMO:  -0.18781614187028683 LUMO:  -0.18388646771332653
Fermi energy:      -0.1872728710
[2.     2.     2.     2.     2.     2.     1.8928 1.0794 1.0543 0.6737
 0.6585 0.3719 0.1155 0.0758 0.072  0.0062]
entropy correction =  -0.03901418313337408
cycle= 15 E= -12.7472548978256  delta_E= -2.91e-06  |g|= 0.000946  |ddm|= 0.0059
HOMO:  -0.1878244337417906 LUMO:  -0.18389495721193888
Fermi energy:      -0.1872799411
[2.     2.     2.     2.     2.     2.     1.8928 1.0793 1.0544 0.6739
 0.6586 0.3718 0.1154 0.0758 0.0719 0.0062]
entropy correction =  -0.039011895068603
cycle= 16 E= -12.747255528483  delta_E= -6.31e-07  |g|= 0.000363  |ddm|= 0.00206
HOMO:  -0.1878134805382001 LUMO:  -0.18388343378697034
Fermi energy:      -0.1872689134
[2.     2.     2.     2.     2.     2.     1.8928 1.0795 1.0544 0.6738
 0.6583 0.3719 0.1154 0.0758 0.072  0.0062]
entropy correction =  -0.039011374982456534
cycle= 17 E= -12.7472556263947  delta_E= -9.79e-08  |g|= 0.000115  |ddm|= 0.000757
HOMO:  -0.1878161205887585 LUMO:  -0.1838859856801393
Fermi energy:      -0.1872715946
[2.     2.     2.     2.     2.     2.     1.8928 1.0794 1.0544 0.6738
 0.6584 0.3718 0.1154 0.0758 0.072  0.0062]
entropy correction =  -0.039011331190481974
cycle= 18 E= -12.7472556346299  delta_E= -8.24e-09  |g|= 5.78e-05  |ddm|= 0.00029
HOMO:  -0.18781651076300995 LUMO:  -0.18388680217433007
Fermi energy:      -0.1872720776
[2.     2.     2.     2.     2.     2.     1.8928 1.0794 1.0544 0.6738
 0.6584 0.3718 0.1154 0.0758 0.072  0.0062]
entropy correction =  -0.039011157190461526
cycle= 19 E= -12.7472556339676  delta_E= 6.62e-10  |g|= 6.52e-05  |ddm|= 0.000212
HOMO:  -0.18781653305763474 LUMO:  -0.18388628992319037
Fermi energy:      -0.1872719353
[2.     2.     2.     2.     2.     2.     1.8928 1.0794 1.0544 0.6738
 0.6584 0.3718 0.1154 0.0758 0.072  0.0062]
entropy correction =  -0.039011182791662415
cycle= 20 E= -12.7472556347791  delta_E= -8.12e-10  |g|= 5.69e-05  |ddm|= 0.000215
HOMO:  -0.18781656909027475 LUMO:  -0.18388627182318676
Fermi energy:      -0.1872719298
[2.     2.     2.     2.     2.     2.     1.8928 1.0794 1.0544 0.6738
 0.6584 0.3718 0.1154 0.0758 0.072  0.0062]
entropy correction =  -0.03901119805759324
cycle= 21 E= -12.7472556343458  delta_E= 4.33e-10  |g|= 6.18e-05  |ddm|= 0.000228
HOMO:  -0.18781610847631627 LUMO:  -0.1838859707168844
Fermi energy:      -0.1872715438
[2.     2.     2.     2.     2.     2.     1.8928 1.0794 1.0544 0.6738
 0.6584 0.3718 0.1154 0.0758 0.072  0.0062]
entropy correction =  -0.039011206904439336
cycle= 22 E= -12.7472556375376  delta_E= -3.19e-09  |g|= 3.12e-06  |ddm|= 0.000144
HOMO:  -0.187816141863882 LUMO:  -0.18388604458376304
Fermi energy:      -0.1872715781
[2.     2.     2.     2.     2.     2.     1.8928 1.0794 1.0544 0.6738
 0.6584 0.3718 0.1154 0.0758 0.072  0.0062]
entropy correction =  -0.03901119980260503
cycle= 23 E= -12.7472556375425  delta_E= -4.9e-12  |g|= 1.72e-06  |ddm|= 8.93e-06
HOMO:  -0.18781615555136424 LUMO:  -0.18388598878710416
Fermi energy:      -0.1872715888
[2.     2.     2.     2.     2.     2.     1.8928 1.0794 1.0544 0.6738
 0.6584 0.3718 0.1154 0.0758 0.072  0.0062]
entropy correction =  -0.03901119523727984
Extra cycle  E= -12.7472556374636  delta_E= 7.89e-11  |g|= 9.86e-06  |ddm|= 2.33e-05
degenerate subspace detected:
nsub = 8
subspace 1:
5, 6, 7, 
subspace 2:
8, 9, 
subspace 3:
11, 12, 
subspace 4:
15, 16, 
subspace 5:
20, 21, 
subspace 6:
25, 26, 
subspace 7:
27, 28, 
subspace 8:
41, 42, 

 Adding contributions from fluctuation of occupation numbers.
degenerate subspace detected:
nsub = 8
subspace 1:
1, 2, 
subspace 2:
5, 6, 
subspace 3:
8, 9, 
subspace 4:
10, 11, 
subspace 5:
14, 15, 
subspace 6:
20, 21, 22, 
subspace 7:
30, 31, 
subspace 8:
38, 39, 

 Adding contributions from fluctuation of occupation numbers.
entropy correction =  -0.03901119523727984
2-norm (grad),       max(grad):
0.14440881829854652 ,  0.011914229416913745
time of hessian construction : 18.450  (cpu),  0.462  (wall) 
time of hessian construction : 20.120  (cpu),  0.504  (wall) 
f =  0.010426953401191312
|umat| =  2.0326023612822715
rks_ao.ne_frozen =  0
Set gradient conv threshold to 3.16228e-05
Initial guess from hcore.
HOMO:  -3.4841889943612236 LUMO:  -3.2725918408155175
Fermi energy:      -3.3764929037
[2. 2. 2. 2. 2. 2. 2. 2. 2.]
tot grids = 190200
init E= -9.51898791998622
HOMO:  -0.04663821254292723 LUMO:  -0.031171163985681385
Fermi energy:      -0.0382647288
[2.0000e+00 2.0000e+00 2.0000e+00 2.0000e+00 2.0000e+00 2.0000e+00
 1.9637e+00 1.9617e+00 1.6844e+00 3.8973e-01 2.3266e-04 2.1856e-04]
entropy correction =  -0.011171372263853044
cycle= 1 E= -8.02740278484481  delta_E= 1.49  |g|= 3.15  |ddm|= 8.65
HOMO:  -0.8754945091053179 LUMO:  -0.7295486704214367
Fermi energy:      -0.8009763018
[2. 2. 2. 2. 2. 2. 2. 2. 2.]
entropy correction =  -2.088591823405218e-07
cycle= 2 E= -10.3671689607322  delta_E= -2.34  |g|= 2.24  |ddm|= 7.86
HOMO:  -0.3978397729878545 LUMO:  -0.37297866427137366
Fermi energy:      -0.3855774881
[2.     2.     2.     2.     1.9955 1.9823 1.9814 1.8471 1.8415 0.149
 0.1488 0.0419 0.0066 0.0059]
entropy correction =  -0.013400288532953511
cycle= 3 E= -12.6862416224439  delta_E= -2.32  |g|= 0.47  |ddm|=  5.3
HOMO:  -0.2959020707735942 LUMO:  -0.2954439862179533
Fermi energy:      -0.2974308908
[2.0000e+00 2.0000e+00 2.0000e+00 2.0000e+00 1.8887e+00 1.8859e+00
 1.7729e+00 1.2691e+00 8.4830e-01 8.0388e-01 7.4886e-01 6.8861e-01
 9.2056e-02 1.7644e-03]
entropy correction =  -0.04298314238639746
cycle= 4 E= -12.7779506922801  delta_E= -0.0917  |g|= 0.108  |ddm|=  1.5
HOMO:  -0.3093866938902726 LUMO:  -0.3030339930822937
Fermi energy:      -0.3064930636
[2.0000e+00 2.0000e+00 2.0000e+00 2.0000e+00 1.9397e+00 1.8959e+00
 1.8772e+00 1.3941e+00 1.2815e+00 6.6726e-01 4.9036e-01 4.1868e-01
 3.3642e-02 1.6496e-03]
entropy correction =  -0.036357981616138985
cycle= 5 E= -12.6085498021651  delta_E= 0.169  |g|= 0.528  |ddm|= 1.12
HOMO:  -0.31139766328834567 LUMO:  -0.3060235402256
Fermi energy:      -0.3091372703
[2.     2.     2.     2.     1.904  1.867  1.8385 1.2414 1.2223 0.6983
 0.606  0.5807 0.0398 0.002 ]
entropy correction =  -0.04017975087023088
cycle= 6 E= -12.7782117960529  delta_E= -0.17  |g|= 0.135  |ddm|= 0.806
HOMO:  -0.31135361927917843 LUMO:  -0.3063304431693886
Fermi energy:      -0.3090770175
[2.     2.     2.     2.     1.8833 1.8483 1.8448 1.2528 1.2238 0.732
 0.5945 0.5772 0.0411 0.0021]
entropy correction =  -0.04067154194332578
cycle= 7 E= -12.7696310915404  delta_E= 0.00858  |g|= 0.178  |ddm|= 0.43
HOMO:  -0.30917892885238624 LUMO:  -0.30620659486637436
Fermi energy:      -0.3079035071
[2.     2.     2.     2.     1.8457 1.8413 1.8259 1.1751 1.1269 0.8319
 0.6629 0.64   0.0481 0.0023]
entropy correction =  -0.04270998580740832
cycle= 8 E= -12.785945800954  delta_E= -0.0163  |g|= 0.0784  |ddm|= 0.345
HOMO:  -0.3069906121203232 LUMO:  -0.3045037334600845
Fermi energy:      -0.3060553477
[2.     2.     2.     2.     1.8568 1.8431 1.8275 1.1311 1.0933 0.8461
 0.6883 0.6624 0.0493 0.0023]
entropy correction =  -0.042842579769421914
cycle= 9 E= -12.780552646609  delta_E= 0.00539  |g|= 0.119  |ddm|= 0.299
HOMO:  -0.3005996008094278 LUMO:  -0.30026699870897705
Fermi energy:      -0.3007869518
[2.     2.     2.     2.     1.8818 1.8495 1.811  1.0191 0.9813 0.9481
 0.7757 0.6796 0.0518 0.0022]
entropy correction =  -0.04319806993944969
cycle= 10 E= -12.7845661155215  delta_E= -0.00401  |g|= 0.0751  |ddm|= 0.32
HOMO:  -0.3001960085855554 LUMO:  -0.29981495571843675
Fermi energy:      -0.3006095124
[2.     2.     2.     2.     1.8664 1.8525 1.83   1.0359 0.9587 0.9207
 0.7562 0.7267 0.0505 0.0023]
entropy correction =  -0.04319423219190639
cycle= 11 E= -12.7878535715697  delta_E= -0.00329  |g|= 0.0447  |ddm|= 0.282
HOMO:  -0.3017312241655111 LUMO:  -0.2999187359245911
Fermi energy:      -0.3013708716
[2.     2.     2.     2.     1.8454 1.8402 1.8308 1.0648 1.036  0.8558
 0.7382 0.7351 0.0512 0.0025]
entropy correction =  -0.04351394744406938
cycle= 12 E= -12.7899687323224  delta_E= -0.00212  |g|= 0.00661  |ddm|= 0.135
HOMO:  -0.30255743022452125 LUMO:  -0.30044459111816924
[...]

At iterate    4    f=   1.038399488793E-02    |proj g|=  2.304570212E-02

At iterate    5    f=   1.037429720291E-02    |proj g|=  1.624268243E-02

At iterate    6    f=   1.036106504721E-02    |proj g|=  1.501519217E-02

At iterate    7    f=   1.035462450717E-02    |proj g|=  1.705996657E-02

At iterate    8    f=   1.034659633314E-02    |proj g|=  1.030472282E-02

At iterate    9    f=   1.032875436702E-02    |proj g|=  1.037853257E-02

At iterate   10    f=   1.031916652333E-02    |proj g|=  1.389953657E-02

At iterate   11    f=   1.030835106694E-02    |proj g|=  7.928078600E-03

At iterate   12    f=   1.029983294903E-02    |proj g|=  7.854878355E-03

At iterate   13    f=   1.029025209552E-02    |proj g|=  9.768489213E-03

At iterate   14    f=   1.027865717564E-02    |proj g|=  9.831938108E-03

At iterate   15    f=   1.026490860325E-02    |proj g|=  1.695946287E-02

At iterate   16    f=   1.025313563177E-02    |proj g|=  1.459241908E-02

At iterate   17    f=   1.024200085941E-02    |proj g|=  1.169049090E-02

At iterate   18    f=   1.023165909370E-02    |proj g|=  1.722191944E-02

At iterate   19    f=   1.021992137889E-02    |proj g|=  1.333364479E-02

At iterate   20    f=   1.020640604520E-02    |proj g|=  1.207135566E-02

At iterate   21    f=   1.019550637427E-02    |proj g|=  1.578721914E-02

At iterate   22    f=   1.018492791909E-02    |proj g|=  9.592778255E-03

At iterate   23    f=   1.017309764239E-02    |proj g|=  9.554455280E-03

At iterate   24    f=   1.015940082606E-02    |proj g|=  1.895621743E-02

At iterate   25    f=   1.014789217990E-02    |proj g|=  1.191629421E-02

At iterate   26    f=   1.013630789453E-02    |proj g|=  1.055419289E-02

At iterate   27    f=   1.011979343129E-02    |proj g|=  1.657897189E-02

At iterate   28    f=   1.010447185474E-02    |proj g|=  1.869016735E-02

At iterate   29    f=   1.008899212694E-02    |proj g|=  8.534499725E-03

At iterate   30    f=   1.006928165939E-02    |proj g|=  1.398812029E-02

At iterate   31    f=   1.005653627135E-02    |proj g|=  1.523856171E-02

At iterate   32    f=   1.003788743963E-02    |proj g|=  1.075387317E-02

At iterate   33    f=   1.002506098101E-02    |proj g|=  1.069513344E-02

At iterate   34    f=   1.001452276809E-02    |proj g|=  1.030801498E-02

At iterate   35    f=   9.999914169687E-03    |proj g|=  1.132231380E-02

At iterate   36    f=   9.985658458883E-03    |proj g|=  1.484952092E-02

At iterate   37    f=   9.970437214941E-03    |proj g|=  1.141770656E-02

At iterate   38    f=   9.957273618464E-03    |proj g|=  9.508535361E-03

At iterate   39    f=   9.947025264602E-03    |proj g|=  1.431417372E-02

At iterate   40    f=   9.933181695142E-03    |proj g|=  1.147534764E-02

At iterate   41    f=   9.920357757921E-03    |proj g|=  1.058635853E-02

At iterate   42    f=   9.908106690897E-03    |proj g|=  1.014595944E-02

At iterate   43    f=   9.895720232887E-03    |proj g|=  1.049704085E-02

At iterate   44    f=   9.883995883572E-03    |proj g|=  1.188613516E-02

At iterate   45    f=   9.873001569492E-03    |proj g|=  1.091955724E-02

At iterate   46    f=   9.859403203918E-03    |proj g|=  1.011564504E-02

At iterate   47    f=   9.846564401534E-03    |proj g|=  1.897908945E-02

At iterate   48    f=   9.834533655067E-03    |proj g|=  1.442849152E-02

At iterate   49    f=   9.823461788979E-03    |proj g|=  9.213541339E-03

At iterate   50    f=   9.807291734798E-03    |proj g|=  1.365496256E-02

           * * *

Tit   = total number of iterations
Tnf   = total number of function evaluations
Tnint = total number of segments explored during Cauchy searches
entropy correction =  -0.0388376708365446
2-norm (grad),       max(grad):
0.14005207413528492 ,  0.012788330152053072
time of hessian construction : 18.930  (cpu),  0.475  (wall) 
time of hessian construction : 19.810  (cpu),  0.496  (wall) 
f =  0.009807291734797673
========================================
 SCF with converged embedding potential 
========================================
rks_ao.ne_frozen =  0
Set gradient conv threshold to 3.16228e-05
tot grids = 190200
init E= -9.38490194919943
HOMO:  -0.19855222097455752 LUMO:  -0.19551592720414504
Fermi energy:      -0.1945463595
[2.     2.     1.9992 1.9987 1.7486 1.7263 1.5012 1.383  1.3805 1.0967
 0.5195 0.4947 0.1215 0.0302]
entropy correction =  -0.047128594464881685
cycle= 1 E= -12.6872756737954  delta_E= -3.3  |g|= 0.524  |ddm|= 4.83
HOMO:  -0.36752630006302567 LUMO:  -0.3447383051753079
Fermi energy:      -0.3566542662
[2.0000e+00 2.0000e+00 2.0000e+00 2.0000e+00 1.9982e+00 1.9922e+00
 1.9921e+00 1.7981e+00 1.7959e+00 1.6893e-01 1.5886e-01 8.0025e-02
 1.4170e-02 1.5933e-03]
entropy correction =  -0.014988831269198834
cycle= 2 E= -12.6077752949761  delta_E= 0.0795  |g|= 0.605  |ddm|= 2.31
HOMO:  -0.30359310989468313 LUMO:  -0.30197181277020924
Fermi energy:      -0.3039739019
[2.     2.     2.     2.     1.9073 1.8943 1.876  0.9764 0.9619 0.8024
 0.7872 0.7543 0.038  0.0021]
entropy correction =  -0.04120986270056908
cycle= 3 E= -12.8036021855285  delta_E= -0.196  |g|= 0.0647  |ddm|= 1.47
HOMO:  -0.3072015165294675 LUMO:  -0.3043100138266413
Fermi energy:      -0.3058272924
[2.     2.     2.     2.     1.8705 1.8483 1.8044 1.2034 1.1366 0.8494
 0.6437 0.5987 0.0427 0.0024]
entropy correction =  -0.04217506736480524
cycle= 4 E= -12.7495151061899  delta_E= 0.0541  |g|= 0.29  |ddm|= 0.635
HOMO:  -0.306608264454648 LUMO:  -0.3042414728120631
Fermi energy:      -0.3056019025
[2.     2.     2.     2.     1.8381 1.829  1.7944 1.1462 1.1003 0.8648
 0.6955 0.6839 0.0455 0.0024]
entropy correction =  -0.04365282336578102
cycle= 5 E= -12.7986054981368  delta_E= -0.0491  |g|= 0.109  |ddm|= 0.629
HOMO:  -0.30387767012343037 LUMO:  -0.30247350415466806
Fermi energy:      -0.3034674095
[2.     2.     2.     2.     1.8692 1.84   1.8058 1.1028 1.041  0.9009
 0.7365 0.6589 0.0428 0.0021]
entropy correction =  -0.04310892819412422
cycle= 6 E= -12.8034440797099  delta_E= -0.00484  |g|= 0.0707  |ddm|= 0.315
HOMO:  -0.3036216923476421 LUMO:  -0.30167161420196303
Fermi energy:      -0.3031927240
[2.     2.     2.     2.     1.8494 1.8453 1.8364 1.0604 1.0429 0.8491
 0.7371 0.7344 0.043  0.002 ]
entropy correction =  -0.043151942577141104
cycle= 7 E= -12.8072394806884  delta_E= -0.0038  |g|= 0.0269  |ddm|= 0.192
HOMO:  -0.30361794296968697 LUMO:  -0.3020332133919517
Fermi energy:      -0.3033655260
[2.     2.     2.     2.     1.8512 1.8438 1.8357 1.076  1.0252 0.8676
 0.7355 0.7202 0.0428 0.002 ]
entropy correction =  -0.043130487564754114
cycle= 8 E= -12.8067085407592  delta_E= 0.000531  |g|= 0.0345  |ddm|= 0.116
HOMO:  -0.30414371304892773 LUMO:  -0.30221705791077996
Fermi energy:      -0.3037096506
[2.     2.     2.     2.     1.8463 1.8412 1.8381 1.0606 1.0434 0.8518
 0.7384 0.7352 0.043  0.002 ]
entropy correction =  -0.043231071402446065
cycle= 9 E= -12.807412231247  delta_E= -0.000704  |g|= 0.0211  |ddm|= 0.0832
HOMO:  -0.3041546001178995 LUMO:  -0.3022323832153062
Fermi energy:      -0.3037105322
[2.     2.     2.     2.     1.8476 1.8405 1.8359 1.0584 1.0444 0.8533
 0.7391 0.7359 0.0431 0.002 ]
entropy correction =  -0.04325791145781709
cycle= 10 E= -12.8077119375134  delta_E= -0.0003  |g|= 0.00118  |ddm|= 0.0361
HOMO:  -0.30397920754655394 LUMO:  -0.3021513244142297
Fermi energy:      -0.3036098613
[2.     2.     2.     2.     1.8473 1.8399 1.8363 1.0614 1.0369 0.8552
 0.7399 0.7379 0.0432 0.002 ]
entropy correction =  -0.04327756105791994
cycle= 11 E= -12.8077060384401  delta_E= 5.9e-06  |g|= 0.0025  |ddm|= 0.011
HOMO:  -0.3040735448402704 LUMO:  -0.30218114624887044
Fermi energy:      -0.3036526008
[2.     2.     2.     2.     1.8472 1.8405 1.8364 1.0586 1.0421 0.8539
 0.7393 0.7369 0.0431 0.002 ]
entropy correction =  -0.043263344321725496
cycle= 12 E= -12.8077132986472  delta_E= -7.26e-06  |g|= 0.00037  |ddm|= 0.00797
HOMO:  -0.3040635047832081 LUMO:  -0.3021749619407863
Fermi energy:      -0.3036486938
[2.     2.     2.     2.     1.8474 1.8407 1.8363 1.0589 1.0415 0.8537
 0.7392 0.7372 0.0431 0.002 ]
entropy correction =  -0.04325807863077304
cycle= 13 E= -12.8077130527281  delta_E= 2.46e-07  |g|= 0.000686  |ddm|= 0.00229
HOMO:  -0.30408347566334404 LUMO:  -0.30218929160314306
Fermi energy:      -0.3036621897
[2.     2.     2.     2.     1.8472 1.8405 1.8364 1.0592 1.0421 0.8538
 0.7392 0.7367 0.0431 0.002 ]
entropy correction =  -0.04326251224555392
cycle= 14 E= -12.8077133913226  delta_E= -3.39e-07  |g|= 0.000234  |ddm|= 0.00175
HOMO:  -0.3040794324354711 LUMO:  -0.30218805460440135
Fermi energy:      -0.3036598113
[2.     2.     2.     2.     1.8472 1.8404 1.8363 1.0591 1.0419 0.8539
 0.7391 0.7369 0.0431 0.002 ]
entropy correction =  -0.04326402716946847
cycle= 15 E= -12.807713427896  delta_E= -3.66e-08  |g|= 0.000124  |ddm|= 0.000754
HOMO:  -0.30407871641563716 LUMO:  -0.3021867102492621
Fermi energy:      -0.3036588941
[2.     2.     2.     2.     1.8472 1.8405 1.8363 1.059  1.042  0.8538
 0.7392 0.7369 0.0431 0.002 ]
entropy correction =  -0.04326297676316986
cycle= 16 E= -12.807713442699  delta_E= -1.48e-08  |g|= 2.29e-05  |ddm|= 0.000354
HOMO:  -0.3040793476061744 LUMO:  -0.30218740989312576
Fermi energy:      -0.3036597988
[2.     2.     2.     2.     1.8472 1.8405 1.8363 1.0591 1.0419 0.8538
 0.7392 0.7369 0.0431 0.002 ]
entropy correction =  -0.04326255780926296
cycle= 17 E= -12.8077134426682  delta_E= 3.09e-11  |g|= 2.2e-05  |ddm|= 9.93e-05
HOMO:  -0.3040799907842018 LUMO:  -0.3021876952235942
Fermi energy:      -0.3036595844
[2.     2.     2.     2.     1.8473 1.8404 1.8363 1.059  1.042  0.8539
 0.7392 0.7369 0.0431 0.002 ]
entropy correction =  -0.04326345918017735
Extra cycle  E= -12.8077134229506  delta_E= 1.97e-08  |g|= 0.000164  |ddm|= 0.000386
entropy correction =  -0.04326345918017735
rks_ao.ne_frozen =  0
Set gradient conv threshold to 3.16228e-05
tot grids = 190200
init E= -9.6357603414673
HOMO:  -0.140194621309958 LUMO:  -0.13690074069194968
Fermi energy:      -0.1398114388
[2.     2.     2.     2.     2.     2.     1.7455 1.0662 1.0383 0.7169
 0.7132 0.355  0.2588 0.0518 0.0487 0.0056]
entropy correction =  -0.04175386266549116
cycle= 1 E= -12.7270369805464  delta_E= -3.09  |g|= 0.262  |ddm|= 4.89
HOMO:  -0.1840353899902763 LUMO:  -0.17774376473927972
Fermi energy:      -0.1829074856
[2.     2.     2.     2.     2.     2.     1.916  1.1357 1.1123 0.5251
 0.5009 0.4987 0.1252 0.0869 0.0821 0.017 ]
entropy correction =  -0.038782071439266916
cycle= 2 E= -12.7357813371971  delta_E= -0.00874  |g|= 0.151  |ddm|= 0.67
HOMO:  -0.1944811923950079 LUMO:  -0.19145188133870575
Fermi energy:      -0.1943021760
[2.     2.     2.     2.     2.     2.     1.9019 1.0466 1.0179 0.7224
 0.7153 0.3358 0.1181 0.0686 0.0652 0.0081]
entropy correction =  -0.038834155495324964
cycle= 3 E= -12.7459968871103  delta_E= -0.0102  |g|= 0.0344  |ddm|= 0.318
HOMO:  -0.19025200145371582 LUMO:  -0.18641721175963444
Fermi energy:      -0.1896808710
[2.     2.     2.     2.     2.     2.     1.9018 1.089  1.0571 0.6847
 0.6449 0.3762 0.1116 0.0668 0.0593 0.0086]
entropy correction =  -0.03854123957526903
cycle= 4 E= -12.7311240285897  delta_E= 0.0149  |g|= 0.137  |ddm|= 0.265
HOMO:  -0.1883952639216658 LUMO:  -0.1844770253075531
Fermi energy:      -0.1878390226
[2.     2.     2.     2.     2.     2.     1.8987 1.0817 1.0556 0.6759
 0.6538 0.3701 0.1123 0.0737 0.0691 0.009 ]
entropy correction =  -0.03885542763427469
cycle= 5 E= -12.7467321325482  delta_E= -0.0156  |g|= 0.0126  |ddm|= 0.224
HOMO:  -0.18843617785822533 LUMO:  -0.1845124873515084
Fermi energy:      -0.1878958670
[2.     2.     2.     2.     2.     2.     1.899  1.0805 1.054  0.674
 0.6595 0.3701 0.1118 0.073  0.0692 0.009 ]
entropy correction =  -0.03884968751845578
cycle= 6 E= -12.74678730925  delta_E= -5.52e-05  |g|= 0.00966  |ddm|= 0.0463
HOMO:  -0.1885414588514507 LUMO:  -0.18467077797784787
Fermi energy:      -0.1880306474
[2.     2.     2.     2.     2.     2.     1.8992 1.0788 1.051  0.6761
 0.664  0.3693 0.1111 0.0724 0.069  0.0089]
entropy correction =  -0.03884293715546907
cycle= 7 E= -12.7468204115343  delta_E= -3.31e-05  |g|= 0.0069  |ddm|= 0.0237
HOMO:  -0.1885585720114897 LUMO:  -0.18470319112434175
Fermi energy:      -0.1880507617
[2.     2.     2.     2.     2.     2.     1.8992 1.0785 1.0507 0.6772
 0.664  0.3691 0.111  0.0724 0.0689 0.0089]
entropy correction =  -0.03884180777875765
cycle= 8 E= -12.746856661599  delta_E= -3.63e-05  |g|= 0.00208  |ddm|= 0.0141
HOMO:  -0.1885733207499442 LUMO:  -0.18474741266202377
Fermi energy:      -0.1880629886
[2.     2.     2.     2.     2.     2.     1.899  1.078  1.051  0.6801
 0.6626 0.3683 0.1108 0.0726 0.0686 0.0089]
entropy correction =  -0.03883974571952825
cycle= 9 E= -12.746857537635  delta_E= -8.76e-07  |g|= 0.00182  |ddm|= 0.00722
HOMO:  -0.18857030287113452 LUMO:  -0.18473159450606785
Fermi energy:      -0.1880583499
[2.     2.     2.     2.     2.     2.     1.899  1.0779 1.0512 0.6791
 0.6638 0.3682 0.1108 0.0725 0.0688 0.0089]
entropy correction =  -0.038839050733729265
cycle= 10 E= -12.7468602512639  delta_E= -2.71e-06  |g|= 0.000422  |ddm|= 0.00513
HOMO:  -0.18856112192840335 LUMO:  -0.18471987888216168
Fermi energy:      -0.1880502113
[2.     2.     2.     2.     2.     2.     1.899  1.0782 1.051  0.6788
 0.6639 0.3682 0.1107 0.0725 0.0688 0.0089]
entropy correction =  -0.038838501077221865
cycle= 11 E= -12.7468604242626  delta_E= -1.73e-07  |g|= 6.38e-05  |ddm|= 0.00119
HOMO:  -0.18856134864965757 LUMO:  -0.18471867078299695
Fermi energy:      -0.1880495637
[2.     2.     2.     2.     2.     2.     1.899  1.0782 1.0511 0.6787
 0.6638 0.3682 0.1107 0.0725 0.0688 0.0089]
entropy correction =  -0.0388372885189438
cycle= 12 E= -12.7468604257601  delta_E= -1.5e-09  |g|= 3.96e-05  |ddm|= 0.000183
HOMO:  -0.18856166911872277 LUMO:  -0.18471955402329476
Fermi energy:      -0.1880499930
[2.     2.     2.     2.     2.     2.     1.899  1.0782 1.0511 0.6787
 0.6638 0.3682 0.1107 0.0725 0.0688 0.0089]
entropy correction =  -0.03883720215217101
cycle= 13 E= -12.7468604252531  delta_E= 5.07e-10  |g|= 4.67e-05  |ddm|= 0.000178
HOMO:  -0.18856049516187132 LUMO:  -0.18471801615427139
Fermi energy:      -0.1880486559
[2.     2.     2.     2.     2.     2.     1.899  1.0782 1.0511 0.6787
 0.6637 0.3682 0.1107 0.0725 0.0688 0.0089]
entropy correction =  -0.03883710561946144
cycle= 14 E= -12.7468604257604  delta_E= -5.07e-10  |g|= 3.99e-05  |ddm|= 0.000111
HOMO:  -0.18856148443350565 LUMO:  -0.18471904888101914
Fermi energy:      -0.1880496924
[2.     2.     2.     2.     2.     2.     1.899  1.0782 1.0511 0.6787
 0.6638 0.3682 0.1107 0.0725 0.0688 0.0089]
entropy correction =  -0.03883703526136992
cycle= 15 E= -12.7468604270569  delta_E= -1.3e-09  |g|= 6.81e-06  |ddm|= 8.04e-05
HOMO:  -0.18856157466516282 LUMO:  -0.18471917922595077
Fermi energy:      -0.1880497867
[2.     2.     2.     2.     2.     2.     1.899  1.0782 1.0511 0.6787
 0.6638 0.3682 0.1107 0.0725 0.0688 0.0089]
entropy correction =  -0.03883701486252894
cycle= 16 E= -12.746860427007  delta_E= 4.99e-11  |g|= 1.05e-05  |ddm|= 3.43e-05
HOMO:  -0.1885611075142022 LUMO:  -0.18471853833444465
Fermi energy:      -0.1880492498
[2.     2.     2.     2.     2.     2.     1.899  1.0782 1.0511 0.6787
 0.6638 0.3682 0.1107 0.0725 0.0688 0.0089]
entropy correction =  -0.038837014774507884
Extra cycle  E= -12.7468604225172  delta_E= 4.49e-09  |g|= 7.54e-05  |ddm|= 0.000164
entropy correction =  -0.038837014774507884
scf energies:
EA (no vemb contrib.) =  -34.81266456366251
EB (no vemb contrib.) =  -25.127203986254706
W =  -59.75387797944414
P_imp change (scf - non-scf):  0.04025402201659606
P_bath change (scf - non-scf):  0.03641116146898841
|P_frag + P_env - P_ref| =  0.19542974615690095
max element of (P_frag + P_env - P_ref) =  0.012788822781377579
mo orthogonality:
[[ 1.4990e-05  2.7706e-06  4.8372e-05  1.8622e-02  8.6495e-05 -8.1074e-05
  -1.1936e-04 -1.2838e-05  6.2013e-05  2.6811e-04  7.3056e-04 -5.5869e-04
   3.4794e-01  1.9433e-03 -1.8535e-03  5.2539e-01  4.7678e-04 -3.0956e-04
  -1.2912e-05]
 [-2.4351e-05 -5.8837e-05  1.0916e-02  1.3417e-04 -3.4618e-06  1.7076e-05
   1.2125e-05 -6.1056e-05  4.2919e-05 -7.4521e-05  2.6213e-04  2.6769e-01
   3.2097e-04 -5.4935e-04  1.6040e-04  1.2726e-04  4.7410e-03  2.1383e-03
  -2.8953e-03]
 [ 2.8206e-03 -2.0679e-03  6.2276e-05  4.4933e-05 -2.5332e-05  4.9654e-06
  -2.7255e-04 -9.1710e-03 -1.9506e-02 -3.1311e-04  7.8541e-05  6.3347e-05
   4.9829e-04 -4.9751e-04  1.5281e-04  3.7812e-04 -9.2578e-01 -2.9753e-02
  -1.2726e-03]
 [-1.9193e-03 -4.2143e-03  5.0293e-05  3.8294e-07  7.8719e-05 -3.4853e-05
  -4.2818e-04 -2.3609e-02  7.2047e-03 -1.8746e-04 -2.8000e-04  3.4402e-04
   1.5835e-03 -8.3133e-05 -1.1737e-03 -2.9910e-05 -2.9859e-02  9.2694e-01
   3.7542e-04]
 [-5.5808e-05  5.3901e-05 -6.9353e-06  1.8384e-04  1.5823e-02 -1.2237e-02
   1.5163e-04  3.6590e-04 -1.1894e-04 -6.1102e-02  4.0155e-02  7.3609e-04
  -7.9902e-02  8.4709e-01  2.2567e-01  3.3941e-02 -5.6898e-04 -4.0097e-04
   2.4172e-04]
 [ 3.0205e-05  6.0247e-05 -3.7150e-05  2.4239e-03 -3.1733e-03 -1.3859e-03
  -1.3477e-04 -7.7627e-05  1.9541e-07  7.6680e-05 -1.3171e-02  2.5373e-04
  -7.8898e-01 -1.1748e-01  1.0836e-01  3.5775e-01 -3.9670e-04  1.6998e-03
  -1.0442e-04]
 [-5.2757e-05  9.7310e-05  6.1147e-05 -3.1652e-04 -1.2232e-02 -1.5979e-02
  -4.9361e-04  4.9450e-04  7.8597e-04 -4.1354e-02 -5.7558e-02 -2.8685e-04
   1.2323e-01 -2.1017e-01  8.4399e-01 -5.3323e-02  1.4594e-04  2.8514e-04
   1.4069e-05]
 [ 1.7555e-05  5.5349e-05  1.2825e-04  1.9927e-03  7.7156e-02 -2.1216e-01
  -3.0976e-04 -8.1921e-04 -4.3664e-05  9.3894e-01 -3.8484e-02 -1.8993e-05
   3.0388e-04  5.6488e-02  5.9183e-02 -8.7740e-05 -6.7614e-04  3.0218e-05
  -6.2860e-04]
 [-6.8739e-05  4.7896e-04  3.0610e-05 -7.0385e-04 -2.0630e-01 -7.5635e-02
  -8.7624e-06 -2.5097e-04 -4.6361e-03  3.8546e-02  9.4060e-01 -5.2872e-04
  -4.7959e-04 -5.7757e-02  5.4298e-02 -6.7678e-04  1.0398e-04  6.7992e-04
  -1.2422e-03]
 [ 7.6094e-05  2.6328e-04 -6.3752e-02 -4.4802e-04  4.7739e-05  9.6973e-05
  -1.0419e-06  1.7362e-03 -3.8496e-04  1.2133e-04  4.1080e-04  9.0325e-01
   5.3436e-04 -6.3398e-04  8.5884e-05  3.5513e-04 -1.2587e-03 -9.7228e-04
   8.8423e-04]
 [-7.3853e-05 -2.8229e-02  1.7180e-04 -7.2026e-05  6.0325e-06 -3.5605e-04
   3.8599e-04  9.4711e-01  1.0680e-01  9.9615e-04  8.1059e-04 -1.8300e-03
  -1.1503e-04 -9.4003e-05 -4.4187e-04  1.3970e-04 -1.9883e-02  3.9911e-02
  -2.5424e-05]
 [ 3.6610e-02 -2.0364e-03 -1.3715e-05  4.5543e-05 -6.5591e-04 -9.6954e-04
  -1.2949e-04 -1.0697e-01  9.4741e-01  1.7479e-04  4.6403e-03  5.5784e-04
  -1.9464e-04  1.8013e-05 -4.3247e-04  2.1650e-05 -2.9684e-02 -1.9082e-02
  -4.9340e-04]
 [-6.1554e-04  3.7924e-04 -4.6624e-04  8.6848e-01 -3.0642e-03  3.4162e-03
  -1.9049e-03  4.0080e-05 -4.4622e-06 -9.3091e-04  6.1514e-04  2.5311e-04
   1.3963e-01  1.0275e-03 -4.9527e-04  2.0375e-01  5.3404e-05 -2.1239e-04
   2.8992e-05]
 [ 3.2472e-03  7.3024e-03  1.9969e-04  1.7827e-03 -1.3245e-03 -1.8811e-03
   9.5754e-01  1.0926e-04 -5.9555e-05 -1.9437e-05 -4.8567e-04  8.7546e-06
   2.6976e-04 -3.2679e-04  3.3262e-04  5.7925e-04 -3.6044e-04  5.7135e-04
   2.5225e-04]]
|P_imp-P_imp_0| =  0.04025402201659606
max(P_imp-P_imp_0) =  0.0021503143611664687
|P_bath-P_bath_0| =  0.03641116146898841
max(P_bath-P_bath_0) =  0.0022732322926499737
Skip  = number of BFGS updates skipped
Nact  = number of active bounds at final generalized Cauchy point
Projg = norm of the final projected gradient
F     = final function value

           * * *

   N    Tit     Tnf  Tnint  Skip  Nact     Projg        F
 4656     50     53      1     0     0   1.365D-02   9.807D-03
  F =   9.8072917347976733E-003

STOP: TOTAL NO. of ITERATIONS REACHED LIMIT                 

 Cauchy                time 0.000E+00 seconds.
 Subspace minimization time 0.000E+00 seconds.
 Line search           time 0.000E+00 seconds.

 Total User time 0.000E+00 seconds.

