#INFO: **** input file is /tigress/xingz/pydmfet/examples/research/Al12/dmfet/Al12.py ****
from pydmfet import locints, sdmfet, oep, tools, dfet_ao, proj_ao
from pydmfet.dfet_ao import dfet
from pydmfet.qcwrap.pyscf_rks_ao import rks_ao
from pyscf import gto, scf,dft, ao2mo,cc
import numpy as np
from pyscf.tools import molden, cubegen
import copy,time
from pydmfet.tools.sym import h_lattice_sym_tab

bas = 'stuttgartdz'
ecp = 'stuttgartdz'
temp = 0.005


mol = gto.Mole()
mol.atom = open('Al12.xyz').read()
mol.basis = bas
mol.ecp = ecp
mol.build(max_memory = 4000, verbose=4)

mf = rks_ao(mol,smear_sigma = temp)
mf.xc = 'pbe,pbe'
mf.max_cycle = 50
mf.scf(dm0=None)

natoms = mol.natm
impAtom = np.zeros([natoms], dtype=int)
for i in range(6):
    impAtom[i] = 1

ghost_frag = 1-impAtom
ghost_env = 1-ghost_frag

mol_frag = gto.Mole()
mol_frag.atom = tools.add_ghost(mol.atom, ghost_frag)
mol_frag.basis = bas
mol_frag.ecp = ecp
mol_frag.build(max_memory = 4000,verbose = 4)

mol_env = gto.Mole()
mol_env.atom = tools.add_ghost(mol.atom, ghost_env)
mol_env.basis =  bas
mol_env.ecp = ecp
mol_env.build(max_memory = 4000,verbose = 4)

Ne_frag = 18
Ne_env = 18

boundary_atoms = None
boundary_atoms2 =None

umat = None
umat = np.load("umat.npy")

params = oep.OEPparams(algorithm = 'leastsq', opt_method = 'L-BFGS-B', diffP_tol=1e-3, outer_maxit = 10)
params.options['ftol'] = 1e-9
params.options['gtol'] = 1e-2
params.options['maxiter'] = 100
params.options['svd_thresh'] = 1e-4

theDMFET = dfet.DFET(mf, mol_frag, mol_env,Ne_frag,Ne_env,\
                     boundary_atoms=boundary_atoms, boundary_atoms2=boundary_atoms2,umat = umat,\
                     oep_params=params, smear_sigma=temp, ecw_method = 'hf',mf_method = mf.xc, plot_dens=True)

umat = theDMFET.embedding_potential()
#INFO: ******************** input file end ********************


System: uname_result(system='Linux', node='tiger-i25c1n3', release='3.10.0-957.27.2.el7.x86_64', version='#1 SMP Tue Jul 30 11:12:20 EDT 2019', machine='x86_64', processor='x86_64')  Threads 40
Python 3.7.0 (default, Jun 28 2018, 13:15:42) 
[GCC 7.2.0]
numpy 1.16.4  scipy 1.4.0.dev0+0f78e0f
Date: Thu Aug 15 23:22:22 2019
PySCF version 1.5
PySCF path  /home/xingz/.local/lib/python3.7/site-packages/pyscf

[CONFIG] conf_file None
[INPUT] verbose = 4
[INPUT] num. atoms = 12
[INPUT] num. electrons = 36
[INPUT] charge = 0
[INPUT] spin (= nelec alpha-beta = 2S) = 0
[INPUT] symmetry False subgroup None
[INPUT] Mole.unit = angstrom
[INPUT]  1 Al     8.092960000000   4.046480000000  -0.000000000000 AA   15.293477937060   7.646738968530  -0.000000000000 Bohr
[INPUT]  2 Al     8.092960000000   6.069720000000  -2.023240000000 AA   15.293477937060  11.470108452795  -3.823369484265 Bohr
[INPUT]  3 Al    10.116200000000   4.046480000000  -2.023240000000 AA   19.116847421325   7.646738968530  -3.823369484265 Bohr
[INPUT]  4 Al     6.069720000000   4.046480000000  -2.023240000000 AA   11.470108452795   7.646738968530  -3.823369484265 Bohr
[INPUT]  5 Al     8.092960000000   2.023240000000  -2.023240000000 AA   15.293477937060   3.823369484265  -3.823369484265 Bohr
[INPUT]  6 Al     8.092960000000   4.046480000000  -4.046480000000 AA   15.293477937060   7.646738968530  -7.646738968530 Bohr
[INPUT]  7 Al     6.069720000000   6.069720000000  -0.000000000000 AA   11.470108452795  11.470108452795  -0.000000000000 Bohr
[INPUT]  8 Al    10.116200000000   2.023240000000  -0.000000000000 AA   19.116847421325   3.823369484265  -0.000000000000 Bohr
[INPUT]  9 Al    10.116200000000   6.069720000000  -4.046480000000 AA   19.116847421325  11.470108452795  -7.646738968530 Bohr
[INPUT] 10 Al     6.069720000000   2.023240000000  -0.000000000000 AA   11.470108452795   3.823369484265  -0.000000000000 Bohr
[INPUT] 11 Al     6.069720000000   6.069720000000  -4.046480000000 AA   11.470108452795  11.470108452795  -7.646738968530 Bohr
[INPUT] 12 Al    10.116200000000   2.023240000000  -4.046480000000 AA   19.116847421325   3.823369484265  -7.646738968530 Bohr

nuclear repulsion = 84.8573926838199
number of shells = 48
number of NR pGTOs = 192
number of NR cGTOs = 96
basis = stuttgartdz
ecp = stuttgartdz
CPU time:         4.69
rks_ao.ne_frozen =  0


******** <class 'pydmfet.qcwrap.pyscf_rks_ao.rks_ao'> flags ********
method = rks_ao-RKS-RHF
initial guess = minao
damping factor = 0
level shift factor = 0
DIIS = <class 'pyscf.scf.diis.CDIIS'>
DIIS start cycle = 1
DIIS space = 8
SCF tol = 1e-09
SCF gradient tol = None
max. SCF cycles = 50
direct_scf = False
chkfile to save SCF result = /tmp/tmp0x40pbsl
max_memory 4000 MB (current use 72 MB)
XC functionals = pbe,pbe
small_rho_cutoff = 1e-07
radial grids: 
    Treutler-Ahlrichs (JCP 102, 346 (M4)) radial grids
    
becke partition: Becke, JCP, 88, 2547 (1988)
pruning grids: <function nwchem_prune at 0x2b288aaab400>
grids dens level: 3
symmetrized grids: False
atomic radii adjust function: <function treutler_atomic_radii_adjust at 0x2b288aaab378>
Set gradient conv threshold to 3.16228e-05
tot grids = 220800
init E= -21.344783658299
HOMO:  -0.09640875247665445 LUMO:  -0.08910626015727983
Fermi energy:      -0.0887572500
[2.     2.     2.     2.     2.     2.     2.     2.     2.     2.
 2.     2.     1.9995 1.9096 1.7557 1.7557 1.6441 1.6441 1.0349 0.2163
 0.02   0.02  ]
entropy correction =  -0.030126402950195356
cycle= 1 E= -24.031793164173  delta_E= -2.69  |g|= 0.653  |ddm|= 6.67
HOMO:  -0.23116268121406924 LUMO:  -0.23116268121406922
Fermi energy:      -0.2358858179
[2.     2.     2.     2.     2.     2.     2.     2.     2.     2.
 2.     2.     2.     1.9989 1.9981 1.9981 1.9963 0.5599 0.5599 0.4393
 0.4393 0.0101]
entropy correction =  -0.02303933511006128
cycle= 2 E= -22.7589412406565  delta_E= 1.27  |g|= 1.61  |ddm|= 4.31
HOMO:  -0.18647942894363442 LUMO:  -0.17551521715009089
Fermi energy:      -0.1766937420
[2.     2.     2.     2.     2.     2.     2.     2.     2.     2.
 2.     2.     1.9995 1.9702 1.7766 1.7766 1.7524 1.7524 0.8827 0.0807
 0.0044 0.0044]
entropy correction =  -0.02415297942638093
cycle= 3 E= -24.1577819172459  delta_E= -1.4  |g|= 0.177  |ddm|= 3.48
HOMO:  -0.16723309364643307 LUMO:  -0.16668219584287128
Fermi energy:      -0.1626445453
[2.     2.     2.     2.     2.     2.     2.     2.     2.     2.
 2.     2.     1.9999 1.922  1.8341 1.8341 1.4292 1.4292 1.3832 0.1196
 0.0244 0.0244]
entropy correction =  -0.029092393079057654
cycle= 4 E= -24.1758252844606  delta_E= -0.018  |g|= 0.0887  |ddm|= 0.83
HOMO:  -0.1691327019218617 LUMO:  -0.1647659994642603
Fermi energy:      -0.1627185946
[2.     2.     2.     2.     2.     2.     2.     2.     2.     2.
 2.     2.     1.9998 1.9364 1.7964 1.7964 1.5659 1.5659 1.2019 0.1144
 0.0115 0.0115]
entropy correction =  -0.028086981458188047
cycle= 5 E= -24.1831548067296  delta_E= -0.00733  |g|= 0.00917  |ddm|= 0.293
HOMO:  -0.17049749264549285 LUMO:  -0.16611814497689312
Fermi energy:      -0.1641279001
[2.     2.     2.     2.     2.     2.     2.     2.     2.     2.
 2.     2.     1.9999 1.9389 1.802  1.802  1.5628 1.5628 1.1964 0.1103
 0.0124 0.0124]
entropy correction =  -0.02795963615164706
cycle= 6 E= -24.1832343125345  delta_E= -7.95e-05  |g|= 0.00113  |ddm|= 0.0422
HOMO:  -0.1705852829372801 LUMO:  -0.16630331880958135
Fermi energy:      -0.1642599608
[2.     2.     2.     2.     2.     2.     2.     2.     2.     2.
 2.     2.     1.9999 1.9387 1.8025 1.8025 1.5598 1.5598 1.2015 0.1105
 0.0124 0.0124]
entropy correction =  -0.027983242952348917
cycle= 7 E= -24.1832355473266  delta_E= -1.23e-06  |g|= 0.000895  |ddm|= 0.00747
HOMO:  -0.1705473183301842 LUMO:  -0.16621690815491424
Fermi energy:      -0.1641961314
[2.     2.     2.     2.     2.     2.     2.     2.     2.     2.
 2.     2.     1.9999 1.9385 1.8018 1.8018 1.5616 1.5616 1.1994 0.1109
 0.0124 0.0124]
entropy correction =  -0.02798902148897179
cycle= 8 E= -24.1832361966832  delta_E= -6.49e-07  |g|= 7.71e-05  |ddm|= 0.00356
HOMO:  -0.17053508515519003 LUMO:  -0.1662114728203208
Fermi energy:      -0.1641878969
[2.     2.     2.     2.     2.     2.     2.     2.     2.     2.
 2.     2.     1.9999 1.9385 1.8019 1.8019 1.5613 1.5613 1.1996 0.1108
 0.0124 0.0124]
entropy correction =  -0.027988389387861756
cycle= 9 E= -24.1832362061521  delta_E= -9.47e-09  |g|= 2.11e-05  |ddm|= 0.000544
HOMO:  -0.17053203701282046 LUMO:  -0.1662077727304525
Fermi energy:      -0.1641845192
[2.     2.     2.     2.     2.     2.     2.     2.     2.     2.
 2.     2.     1.9999 1.9385 1.8019 1.8019 1.5613 1.5613 1.1996 0.1108
 0.0124 0.0124]
entropy correction =  -0.027988113609436874
cycle= 10 E= -24.1832362064488  delta_E= -2.97e-10  |g|= 3.03e-06  |ddm|= 6.6e-05
HOMO:  -0.17053311709629623 LUMO:  -0.16620885001249744
Fermi energy:      -0.1641855888
[2.     2.     2.     2.     2.     2.     2.     2.     2.     2.
 2.     2.     1.9999 1.9385 1.8019 1.8019 1.5613 1.5613 1.1996 0.1108
 0.0124 0.0124]
entropy correction =  -0.02798812373700078
Extra cycle  E= -24.1832362064465  delta_E= 2.3e-12  |g|= 3.71e-06  |ddm|= 1.75e-05
converged SCF energy = -24.1832362064465
#INFO: **** input file is /tigress/xingz/pydmfet/examples/research/Al12/dmfet/Al12.py ****
from pydmfet import locints, sdmfet, oep, tools, dfet_ao, proj_ao
from pydmfet.dfet_ao import dfet
from pydmfet.qcwrap.pyscf_rks_ao import rks_ao
from pyscf import gto, scf,dft, ao2mo,cc
import numpy as np
from pyscf.tools import molden, cubegen
import copy,time
from pydmfet.tools.sym import h_lattice_sym_tab

bas = 'stuttgartdz'
ecp = 'stuttgartdz'
temp = 0.005


mol = gto.Mole()
mol.atom = open('Al12.xyz').read()
mol.basis = bas
mol.ecp = ecp
mol.build(max_memory = 4000, verbose=4)

mf = rks_ao(mol,smear_sigma = temp)
mf.xc = 'pbe,pbe'
mf.max_cycle = 50
mf.scf(dm0=None)

natoms = mol.natm
impAtom = np.zeros([natoms], dtype=int)
for i in range(6):
    impAtom[i] = 1

ghost_frag = 1-impAtom
ghost_env = 1-ghost_frag

mol_frag = gto.Mole()
mol_frag.atom = tools.add_ghost(mol.atom, ghost_frag)
mol_frag.basis = bas
mol_frag.ecp = ecp
mol_frag.build(max_memory = 4000,verbose = 4)

mol_env = gto.Mole()
mol_env.atom = tools.add_ghost(mol.atom, ghost_env)
mol_env.basis =  bas
mol_env.ecp = ecp
mol_env.build(max_memory = 4000,verbose = 4)

Ne_frag = 18
Ne_env = 18

boundary_atoms = None
boundary_atoms2 =None

umat = None
umat = np.load("umat.npy")

params = oep.OEPparams(algorithm = 'leastsq', opt_method = 'L-BFGS-B', diffP_tol=1e-3, outer_maxit = 10)
params.options['ftol'] = 1e-9
params.options['gtol'] = 1e-2
params.options['maxiter'] = 100
params.options['svd_thresh'] = 1e-4

theDMFET = dfet.DFET(mf, mol_frag, mol_env,Ne_frag,Ne_env,\
                     boundary_atoms=boundary_atoms, boundary_atoms2=boundary_atoms2,umat = umat,\
                     oep_params=params, smear_sigma=temp, ecw_method = 'hf',mf_method = mf.xc, plot_dens=True)

umat = theDMFET.embedding_potential()
#INFO: ******************** input file end ********************


System: uname_result(system='Linux', node='tiger-i25c1n3', release='3.10.0-957.27.2.el7.x86_64', version='#1 SMP Tue Jul 30 11:12:20 EDT 2019', machine='x86_64', processor='x86_64')  Threads 40
Python 3.7.0 (default, Jun 28 2018, 13:15:42) 
[GCC 7.2.0]
numpy 1.16.4  scipy 1.4.0.dev0+0f78e0f
Date: Thu Aug 15 23:22:35 2019
PySCF version 1.5
PySCF path  /home/xingz/.local/lib/python3.7/site-packages/pyscf

[CONFIG] conf_file None
[INPUT] verbose = 4
[INPUT] num. atoms = 12
[INPUT] num. electrons = 18
[INPUT] charge = 0
[INPUT] spin (= nelec alpha-beta = 2S) = 0
[INPUT] symmetry False subgroup None
[INPUT] Mole.unit = angstrom
[INPUT]  1 Al     8.092960000000   4.046480000000  -0.000000000000 AA   15.293477937060   7.646738968530  -0.000000000000 Bohr
[INPUT]  2 Al     8.092960000000   6.069720000000  -2.023240000000 AA   15.293477937060  11.470108452795  -3.823369484265 Bohr
[INPUT]  3 Al    10.116200000000   4.046480000000  -2.023240000000 AA   19.116847421325   7.646738968530  -3.823369484265 Bohr
[INPUT]  4 Al     6.069720000000   4.046480000000  -2.023240000000 AA   11.470108452795   7.646738968530  -3.823369484265 Bohr
[INPUT]  5 Al     8.092960000000   2.023240000000  -2.023240000000 AA   15.293477937060   3.823369484265  -3.823369484265 Bohr
[INPUT]  6 Al     8.092960000000   4.046480000000  -4.046480000000 AA   15.293477937060   7.646738968530  -7.646738968530 Bohr
[INPUT]  7 GHOST-Al   6.069720000000   6.069720000000  -0.000000000000 AA   11.470108452795  11.470108452795  -0.000000000000 Bohr
[INPUT]  8 GHOST-Al  10.116200000000   2.023240000000  -0.000000000000 AA   19.116847421325   3.823369484265  -0.000000000000 Bohr
[INPUT]  9 GHOST-Al  10.116200000000   6.069720000000  -4.046480000000 AA   19.116847421325  11.470108452795  -7.646738968530 Bohr
[INPUT] 10 GHOST-Al   6.069720000000   2.023240000000  -0.000000000000 AA   11.470108452795   3.823369484265  -0.000000000000 Bohr
[INPUT] 11 GHOST-Al   6.069720000000   6.069720000000  -4.046480000000 AA   11.470108452795  11.470108452795  -7.646738968530 Bohr
[INPUT] 12 GHOST-Al  10.116200000000   2.023240000000  -4.046480000000 AA   19.116847421325   3.823369484265  -7.646738968530 Bohr

nuclear repulsion = 23.5047992975816
number of shells = 48
number of NR pGTOs = 192
number of NR cGTOs = 96
basis = stuttgartdz
ecp = stuttgartdz
CPU time:       338.67
#INFO: **** input file is /tigress/xingz/pydmfet/examples/research/Al12/dmfet/Al12.py ****
from pydmfet import locints, sdmfet, oep, tools, dfet_ao, proj_ao
from pydmfet.dfet_ao import dfet
from pydmfet.qcwrap.pyscf_rks_ao import rks_ao
from pyscf import gto, scf,dft, ao2mo,cc
import numpy as np
from pyscf.tools import molden, cubegen
import copy,time
from pydmfet.tools.sym import h_lattice_sym_tab

bas = 'stuttgartdz'
ecp = 'stuttgartdz'
temp = 0.005


mol = gto.Mole()
mol.atom = open('Al12.xyz').read()
mol.basis = bas
mol.ecp = ecp
mol.build(max_memory = 4000, verbose=4)

mf = rks_ao(mol,smear_sigma = temp)
mf.xc = 'pbe,pbe'
mf.max_cycle = 50
mf.scf(dm0=None)

natoms = mol.natm
impAtom = np.zeros([natoms], dtype=int)
for i in range(6):
    impAtom[i] = 1

ghost_frag = 1-impAtom
ghost_env = 1-ghost_frag

mol_frag = gto.Mole()
mol_frag.atom = tools.add_ghost(mol.atom, ghost_frag)
mol_frag.basis = bas
mol_frag.ecp = ecp
mol_frag.build(max_memory = 4000,verbose = 4)

mol_env = gto.Mole()
mol_env.atom = tools.add_ghost(mol.atom, ghost_env)
mol_env.basis =  bas
mol_env.ecp = ecp
mol_env.build(max_memory = 4000,verbose = 4)

Ne_frag = 18
Ne_env = 18

boundary_atoms = None
boundary_atoms2 =None

umat = None
umat = np.load("umat.npy")

params = oep.OEPparams(algorithm = 'leastsq', opt_method = 'L-BFGS-B', diffP_tol=1e-3, outer_maxit = 10)
params.options['ftol'] = 1e-9
params.options['gtol'] = 1e-2
params.options['maxiter'] = 100
params.options['svd_thresh'] = 1e-4

theDMFET = dfet.DFET(mf, mol_frag, mol_env,Ne_frag,Ne_env,\
                     boundary_atoms=boundary_atoms, boundary_atoms2=boundary_atoms2,umat = umat,\
                     oep_params=params, smear_sigma=temp, ecw_method = 'hf',mf_method = mf.xc, plot_dens=True)

umat = theDMFET.embedding_potential()
#INFO: ******************** input file end ********************


System: uname_result(system='Linux', node='tiger-i25c1n3', release='3.10.0-957.27.2.el7.x86_64', version='#1 SMP Tue Jul 30 11:12:20 EDT 2019', machine='x86_64', processor='x86_64')  Threads 40
Python 3.7.0 (default, Jun 28 2018, 13:15:42) 
[GCC 7.2.0]
numpy 1.16.4  scipy 1.4.0.dev0+0f78e0f
Date: Thu Aug 15 23:22:35 2019
PySCF version 1.5
PySCF path  /home/xingz/.local/lib/python3.7/site-packages/pyscf

[CONFIG] conf_file None
[INPUT] verbose = 4
[INPUT] num. atoms = 12
[INPUT] num. electrons = 18
[INPUT] charge = 0
[INPUT] spin (= nelec alpha-beta = 2S) = 0
[INPUT] symmetry False subgroup None
[INPUT] Mole.unit = angstrom
[INPUT]  1 GHOST-Al   8.092960000000   4.046480000000  -0.000000000000 AA   15.293477937060   7.646738968530  -0.000000000000 Bohr
[INPUT]  2 GHOST-Al   8.092960000000   6.069720000000  -2.023240000000 AA   15.293477937060  11.470108452795  -3.823369484265 Bohr
[INPUT]  3 GHOST-Al  10.116200000000   4.046480000000  -2.023240000000 AA   19.116847421325   7.646738968530  -3.823369484265 Bohr
[INPUT]  4 GHOST-Al   6.069720000000   4.046480000000  -2.023240000000 AA   11.470108452795   7.646738968530  -3.823369484265 Bohr
[INPUT]  5 GHOST-Al   8.092960000000   2.023240000000  -2.023240000000 AA   15.293477937060   3.823369484265  -3.823369484265 Bohr
[INPUT]  6 GHOST-Al   8.092960000000   4.046480000000  -4.046480000000 AA   15.293477937060   7.646738968530  -7.646738968530 Bohr
[INPUT]  7 Al     6.069720000000   6.069720000000  -0.000000000000 AA   11.470108452795  11.470108452795  -0.000000000000 Bohr
[INPUT]  8 Al    10.116200000000   2.023240000000  -0.000000000000 AA   19.116847421325   3.823369484265  -0.000000000000 Bohr
[INPUT]  9 Al    10.116200000000   6.069720000000  -4.046480000000 AA   19.116847421325  11.470108452795  -7.646738968530 Bohr
[INPUT] 10 Al     6.069720000000   2.023240000000  -0.000000000000 AA   11.470108452795   3.823369484265  -0.000000000000 Bohr
[INPUT] 11 Al     6.069720000000   6.069720000000  -4.046480000000 AA   11.470108452795  11.470108452795  -7.646738968530 Bohr
[INPUT] 12 Al    10.116200000000   2.023240000000  -4.046480000000 AA   19.116847421325   3.823369484265  -7.646738968530 Bohr

nuclear repulsion = 14.0938802665721
number of shells = 48
number of NR pGTOs = 192
number of NR cGTOs = 96
basis = stuttgartdz
ecp = stuttgartdz
CPU time:       339.06


******** <class 'pydmfet.dfet_ao.scf.EmbedSCF'> flags ********
method = EmbedSCF-RKS-RHF
initial guess = minao
damping factor = 0
level shift factor = 0
DIIS = <class 'pyscf.scf.diis.CDIIS'>
DIIS start cycle = 1
DIIS space = 8
SCF tol = 1e-09
SCF gradient tol = None
max. SCF cycles = 50
direct_scf = False
chkfile to save SCF result = /tmp/tmpda_wcgnt
max_memory 4000 MB (current use 544 MB)
XC functionals = pbe,pbe
small_rho_cutoff = 1e-07
radial grids: 
    Treutler-Ahlrichs (JCP 102, 346 (M4)) radial grids
    
becke partition: Becke, JCP, 88, 2547 (1988)
pruning grids: <function nwchem_prune at 0x2b288aaab400>
grids dens level: 3
symmetrized grids: False
atomic radii adjust function: <function treutler_atomic_radii_adjust at 0x2b288aaab378>
Set gradient conv threshold to 3.16228e-05
tot grids = 190200
init E= -10.6004249387657
HOMO: -0.09959906123923642 LUMO: -0.09906430270171
mo_energy:
[-0.3514 -0.2418 -0.2418 -0.241  -0.1471 -0.147  -0.1057 -0.0996 -0.0996
 -0.0991 -0.0526 -0.0526 -0.0521 -0.004 ]
e_fermi =  -0.0951299875597146
[2.    2.    2.    2.    2.    2.    1.786 1.419 1.419 1.374]
entropy correction =  -0.02172828465157629
cycle= 1 E= -11.9619857619311  delta_E= -1.36  |g|= 0.366  |ddm|= 4.48
HOMO: -0.23942724658180248 LUMO: -0.22588426902258324
mo_energy:
[-0.56  -0.414 -0.414 -0.41  -0.27  -0.27  -0.241 -0.239 -0.239 -0.226
 -0.171 -0.171 -0.171 -0.119]
e_fermi =  -0.22938676964965596
[2.    2.    2.    2.    1.999 1.999 1.811 1.763 1.763 0.663]
entropy correction =  -0.01681131088264644
cycle= 2 E= -11.8887614859182  delta_E= 0.0732  |g|= 0.439  |ddm|= 1.97
HOMO: -0.1802900448620655 LUMO: -0.17943852306736766
mo_energy:
[-0.459 -0.336 -0.336 -0.334 -0.227 -0.227 -0.185 -0.18  -0.18  -0.179
 -0.13  -0.13  -0.13  -0.075]
e_fermi =  -0.17550265635779488
[2.    2.    2.    2.    2.    2.    1.735 1.445 1.445 1.374]
entropy correction =  -0.02198111543119079
cycle= 3 E= -12.021221480814  delta_E= -0.132  |g|= 0.0117  |ddm|= 1.24
HOMO: -0.17563999449935663 LUMO: -0.17414535443853024
mo_energy:
[-0.455 -0.331 -0.331 -0.329 -0.22  -0.22  -0.18  -0.176 -0.176 -0.174
 -0.124 -0.124 -0.124 -0.069]
e_fermi =  -0.17060463101277873
[2.    2.    2.    2.    2.    2.    1.73  1.465 1.465 1.34 ]
entropy correction =  -0.021957122747485434
cycle= 4 E= -12.0214172787336  delta_E= -0.000196  |g|= 0.00491  |ddm|= 0.0674
HOMO: -0.17609793208439542 LUMO: -0.17478994036816137
mo_energy:
[-0.455 -0.331 -0.331 -0.329 -0.221 -0.221 -0.18  -0.176 -0.176 -0.175
 -0.125 -0.125 -0.125 -0.07 ]
e_fermi =  -0.1710576259716561
[2.    2.    2.    2.    2.    2.    1.712 1.465 1.465 1.357]
entropy correction =  -0.0220527439836808
cycle= 5 E= -12.0213826693117  delta_E= 3.46e-05  |g|= 0.0101  |ddm|= 0.0304
HOMO: -0.17615591512112944 LUMO: -0.17485983842588043
mo_energy:
[-0.455 -0.331 -0.331 -0.329 -0.221 -0.221 -0.18  -0.176 -0.176 -0.175
 -0.125 -0.125 -0.125 -0.07 ]
e_fermi =  -0.1711316970465368
[2.    2.    2.    2.    2.    2.    1.715 1.464 1.464 1.356]
entropy correction =  -0.02204095951085603
cycle= 6 E= -12.021434364479  delta_E= -5.17e-05  |g|= 0.00427  |ddm|= 0.0199
HOMO: -0.17617701273559982 LUMO: -0.1748718950149683
mo_energy:
[-0.455 -0.331 -0.331 -0.33  -0.221 -0.221 -0.18  -0.176 -0.176 -0.175
 -0.125 -0.125 -0.125 -0.07 ]
e_fermi =  -0.17117458531461693
[2.    2.    2.    2.    2.    2.    1.721 1.462 1.462 1.354]
entropy correction =  -0.022013199064810675
cycle= 7 E= -12.0214471676642  delta_E= -1.28e-05  |g|= 0.000529  |ddm|= 0.00831
HOMO: -0.1761847862064189 LUMO: -0.17487713783985656
mo_energy:
[-0.455 -0.331 -0.331 -0.33  -0.221 -0.221 -0.18  -0.176 -0.176 -0.175
 -0.125 -0.125 -0.125 -0.07 ]
e_fermi =  -0.17118125842273366
[2.    2.    2.    2.    2.    2.    1.721 1.462 1.462 1.354]
entropy correction =  -0.022013109111496315
cycle= 8 E= -12.0214473262601  delta_E= -1.59e-07  |g|= 0.000135  |ddm|= 0.000855
HOMO: -0.1762081907568112 LUMO: -0.17489329236051496
mo_energy:
[-0.455 -0.331 -0.331 -0.33  -0.221 -0.221 -0.18  -0.176 -0.176 -0.175
 -0.125 -0.125 -0.125 -0.07 ]
e_fermi =  -0.17120120804680045
[2.    2.    2.    2.    2.    2.    1.721 1.463 1.463 1.353]
entropy correction =  -0.022013336587051607
cycle= 9 E= -12.0214473417682  delta_E= -1.55e-08  |g|= 1.03e-05  |ddm|= 0.000489
HOMO: -0.1762075764857086 LUMO: -0.17489342710416275
mo_energy:
[-0.455 -0.331 -0.331 -0.33  -0.221 -0.221 -0.18  -0.176 -0.176 -0.175
 -0.125 -0.125 -0.125 -0.07 ]
e_fermi =  -0.17120123002809354
[2.    2.    2.    2.    2.    2.    1.721 1.463 1.463 1.353]
entropy correction =  -0.022013372532509682
cycle= 10 E= -12.0214473415014  delta_E= 2.67e-10  |g|= 1.87e-05  |ddm|= 8.02e-05
HOMO: -0.17620654872393032 LUMO: -0.17489282174553708
mo_energy:
[-0.455 -0.331 -0.331 -0.33  -0.221 -0.221 -0.18  -0.176 -0.176 -0.175
 -0.125 -0.125 -0.125 -0.07 ]
e_fermi =  -0.17120057443565592
[2.    2.    2.    2.    2.    2.    1.721 1.463 1.463 1.353]
entropy correction =  -0.022013369039358906
Extra cycle  E= -12.0214473393712  delta_E= 2.13e-09  |g|= 4.85e-05  |ddm|= 0.000195
converged SCF energy = -12.0214473393712


******** <class 'pydmfet.dfet_ao.scf.EmbedSCF'> flags ********
method = EmbedSCF-RKS-RHF
initial guess = minao
damping factor = 0
level shift factor = 0
DIIS = <class 'pyscf.scf.diis.CDIIS'>
DIIS start cycle = 1
DIIS space = 8
SCF tol = 1e-09
SCF gradient tol = None
max. SCF cycles = 50
direct_scf = False
chkfile to save SCF result = /tmp/tmpfal1grgo
max_memory 4000 MB (current use 1203 MB)
XC functionals = pbe,pbe
small_rho_cutoff = 1e-07
radial grids: 
    Treutler-Ahlrichs (JCP 102, 346 (M4)) radial grids
    
becke partition: Becke, JCP, 88, 2547 (1988)
pruning grids: <function nwchem_prune at 0x2b288aaab400>
grids dens level: 3
symmetrized grids: False
atomic radii adjust function: <function treutler_atomic_radii_adjust at 0x2b288aaab378>
Set gradient conv threshold to 3.16228e-05
tot grids = 190200
init E= -10.322382190022
HOMO: -0.06296630102760681 LUMO: -0.0607187308406188
mo_energy:
[-0.232 -0.221 -0.221 -0.2   -0.2   -0.195 -0.064 -0.063 -0.063 -0.061
 -0.061 -0.059 -0.053 -0.038]
e_fermi =  -0.06220212156867176
[2.    2.    2.    2.    2.    2.    1.174 1.076 1.076 0.853 0.853 0.652
 0.286 0.016 0.006 0.006]
entropy correction =  -0.045613878581248296
cycle= 1 E= -11.7985410620276  delta_E= -1.48  |g|= 0.188  |ddm|= 4.44
HOMO: -0.13355360525095714 LUMO: -0.1334711269246355
mo_energy:
[-0.316 -0.306 -0.306 -0.287 -0.287 -0.282 -0.134 -0.134 -0.134 -0.133
 -0.133 -0.131 -0.119 -0.106]
e_fermi =  -0.1335718376270491
[2.    2.    2.    2.    2.    2.    1.071 1.069 0.998 0.99  0.984 0.772
 0.102 0.007 0.003 0.003]
entropy correction =  -0.043803181076913375
cycle= 2 E= -11.8145774966474  delta_E= -0.016  |g|= 0.0566  |ddm|= 1.19
HOMO: -0.1198648936178286 LUMO: -0.11919431601221579
mo_energy:
[-0.3   -0.29  -0.29  -0.271 -0.27  -0.266 -0.121 -0.121 -0.12  -0.119
 -0.118 -0.117 -0.106 -0.093]
e_fermi =  -0.11982433356785852
[2.    2.    2.    2.    2.    2.    1.162 1.129 1.004 0.937 0.853 0.767
 0.13  0.01  0.004 0.004]
entropy correction =  -0.04401853709787968
cycle= 3 E= -11.806420151752  delta_E= 0.00816  |g|= 0.103  |ddm|= 0.375
HOMO: -0.11933234746215507 LUMO: -0.11852199788775826
mo_energy:
[-0.299 -0.289 -0.289 -0.27  -0.269 -0.265 -0.121 -0.121 -0.119 -0.119
 -0.118 -0.117 -0.106 -0.093]
e_fermi =  -0.11923322707417831
[2.    2.    2.    2.    2.    2.    1.177 1.14  1.01  0.929 0.839 0.756
 0.131 0.01  0.004 0.004]
entropy correction =  -0.04394611097833034
cycle= 4 E= -11.8035602731106  delta_E= 0.00286  |g|= 0.117  |ddm|= 0.441
HOMO: -0.11733622337680698 LUMO: -0.11728635609610312
mo_energy:
[-0.297 -0.287 -0.287 -0.268 -0.267 -0.263 -0.118 -0.118 -0.117 -0.117
 -0.116 -0.116 -0.104 -0.091]
e_fermi =  -0.11736527827978313
[2.    2.    2.    2.    2.    2.    1.063 1.053 0.997 0.992 0.884 0.856
 0.136 0.01  0.004 0.004]
entropy correction =  -0.04452375717585776
cycle= 5 E= -11.8164550565503  delta_E= -0.0129  |g|= 0.00612  |ddm|= 0.246
HOMO: -0.11759590488724944 LUMO: -0.1174470053853719
mo_energy:
[-0.297 -0.288 -0.287 -0.268 -0.267 -0.263 -0.118 -0.118 -0.118 -0.117
 -0.116 -0.116 -0.104 -0.091]
e_fermi =  -0.11756577999755709
[2.    2.    2.    2.    2.    2.    1.072 1.043 1.003 0.988 0.882 0.857
 0.136 0.01  0.004 0.004]
entropy correction =  -0.04450659232080069
cycle= 6 E= -11.8163152426074  delta_E= 0.00014  |g|= 0.013  |ddm|= 0.0576
HOMO: -0.11757277409633289 LUMO: -0.11756174050288302
mo_energy:
[-0.297 -0.288 -0.287 -0.268 -0.268 -0.263 -0.118 -0.118 -0.118 -0.118
 -0.116 -0.116 -0.105 -0.091]
e_fermi =  -0.11762278954595314
[2.    2.    2.    2.    2.    2.    1.06  1.057 0.995 0.994 0.882 0.858
 0.135 0.009 0.004 0.004]
entropy correction =  -0.04450373452659199
cycle= 7 E= -11.8163087882755  delta_E= 6.45e-06  |g|= 0.0139  |ddm|= 0.0529
HOMO: -0.11758712665332219 LUMO: -0.11756606382476899
mo_energy:
[-0.297 -0.288 -0.287 -0.268 -0.268 -0.263 -0.118 -0.118 -0.118 -0.118
 -0.116 -0.116 -0.105 -0.091]
e_fermi =  -0.11762156909811781
[2.    2.    2.    2.    2.    2.    1.058 1.055 0.997 0.994 0.882 0.86
 0.135 0.009 0.004 0.004]
entropy correction =  -0.0445087112700591
cycle= 8 E= -11.8164665788725  delta_E= -0.000158  |g|= 0.00517  |ddm|= 0.0387
HOMO: -0.11748693701324586 LUMO: -0.11748297276707832
mo_energy:
[-0.297 -0.287 -0.287 -0.268 -0.268 -0.263 -0.118 -0.118 -0.117 -0.117
 -0.116 -0.116 -0.104 -0.091]
e_fermi =  -0.11752490251145281
[2.    2.    2.    2.    2.    2.    1.057 1.056 0.996 0.996 0.882 0.859
 0.135 0.01  0.004 0.004]
entropy correction =  -0.04451063385725401
cycle= 9 E= -11.8164914677366  delta_E= -2.49e-05  |g|= 0.000269  |ddm|= 0.011
HOMO: -0.11749594656000757 LUMO: -0.1174885658597634
mo_energy:
[-0.297 -0.287 -0.287 -0.268 -0.268 -0.263 -0.118 -0.118 -0.117 -0.117
 -0.116 -0.116 -0.104 -0.091]
e_fermi =  -0.11753389834092662
[2.    2.    2.    2.    2.    2.    1.057 1.056 0.996 0.995 0.882 0.859
 0.135 0.01  0.004 0.004]
entropy correction =  -0.04450983553108466
cycle= 10 E= -11.8164913800581  delta_E= 8.77e-08  |g|= 0.000387  |ddm|= 0.00181
HOMO: -0.11749522000586358 LUMO: -0.11749291321808217
mo_energy:
[-0.297 -0.287 -0.287 -0.268 -0.268 -0.263 -0.118 -0.118 -0.117 -0.117
 -0.116 -0.116 -0.104 -0.091]
e_fermi =  -0.11753573198844487
[2.    2.    2.    2.    2.    2.    1.057 1.057 0.996 0.996 0.882 0.859
 0.135 0.01  0.004 0.004]
entropy correction =  -0.044509692594142385
cycle= 11 E= -11.8164915374161  delta_E= -1.57e-07  |g|= 3.75e-05  |ddm|= 0.00141
HOMO: -0.11749460959202405 LUMO: -0.11749198440587454
mo_energy:
[-0.297 -0.287 -0.287 -0.268 -0.268 -0.263 -0.118 -0.118 -0.117 -0.117
 -0.116 -0.116 -0.104 -0.091]
e_fermi =  -0.1175344438621315
[2.    2.    2.    2.    2.    2.    1.057 1.056 0.996 0.996 0.882 0.859
 0.135 0.01  0.004 0.004]
entropy correction =  -0.04450978498301964
cycle= 12 E= -11.8164915365567  delta_E= 8.59e-10  |g|= 5.33e-05  |ddm|= 0.000208
HOMO: -0.11749386361524716 LUMO: -0.11749135851774119
mo_energy:
[-0.297 -0.287 -0.287 -0.268 -0.268 -0.263 -0.118 -0.118 -0.117 -0.117
 -0.116 -0.116 -0.104 -0.091]
e_fermi =  -0.1175335978475715
[2.    2.    2.    2.    2.    2.    1.057 1.056 0.996 0.996 0.882 0.859
 0.135 0.01  0.004 0.004]
entropy correction =  -0.044509838089513025
cycle= 13 E= -11.8164915381643  delta_E= -1.61e-09  |g|= 2.9e-05  |ddm|= 0.000115
HOMO: -0.11749415844003505 LUMO: -0.1174916363865723
mo_energy:
[-0.297 -0.287 -0.287 -0.268 -0.268 -0.263 -0.118 -0.118 -0.117 -0.117
 -0.116 -0.116 -0.104 -0.091]
e_fermi =  -0.11753405641511404
[2.    2.    2.    2.    2.    2.    1.057 1.056 0.996 0.996 0.882 0.859
 0.135 0.01  0.004 0.004]
entropy correction =  -0.044509803168978394
cycle= 14 E= -11.816491538547  delta_E= -3.83e-10  |g|= 2.14e-05  |ddm|= 0.000111
HOMO: -0.11749377698463859 LUMO: -0.11749128529447934
mo_energy:
[-0.297 -0.287 -0.287 -0.268 -0.268 -0.263 -0.118 -0.118 -0.117 -0.117
 -0.116 -0.116 -0.104 -0.091]
e_fermi =  -0.1175335534738352
[2.    2.    2.    2.    2.    2.    1.057 1.056 0.996 0.996 0.882 0.859
 0.135 0.01  0.004 0.004]
entropy correction =  -0.04450981250657904
Extra cycle  E= -11.816491388225  delta_E= 1.5e-07  |g|= 0.0004  |ddm|= 0.000846
converged SCF energy = -11.816491388225
|umat| =  0.05558193931676948
rks_ao.ne_frozen =  0
Set gradient conv threshold to 3.16228e-05
Initial guess from hcore.
HOMO:  -3.4811041369036437 LUMO:  -3.2317322581079613
Fermi energy:      -3.3573248400
[2. 2. 2. 2. 2. 2. 2. 2. 2.]
tot grids = 190200
init E= -8.76080195781409
HOMO:  0.042382941964871926 LUMO:  0.05338188888266674
Fermi energy:       0.0470997120
[2.0000e+00 2.0000e+00 2.0000e+00 2.0000e+00 2.0000e+00 2.0000e+00
 1.7902e+00 1.7901e+00 1.4396e+00 4.4318e-01 4.4295e-01 4.6059e-02
 4.0753e-02 3.4088e-03 1.6054e-03 1.6052e-03 2.0025e-04 2.0002e-04
 1.3820e-04]
entropy correction =  -0.025599086109419324
cycle= 1 E= -5.69270771036254  delta_E= 3.07  |g|=  3.2  |ddm|= 11.3
HOMO:  -1.0323288388260952 LUMO:  -0.8120916065448598
Fermi energy:      -0.9215293391
[2. 2. 2. 2. 2. 2. 2. 2. 2.]
entropy correction =  -3.046864934455048e-10
cycle= 2 E= -9.18102738998162  delta_E= -3.49  |g|= 1.72  |ddm|= 10.9
HOMO:  -0.20614607632819096 LUMO:  -0.17443414442541708
Fermi energy:      -0.1879147653
[2.0000e+00 2.0000e+00 2.0000e+00 2.0000e+00 2.0000e+00 2.0000e+00
 1.9708e+00 1.9492e+00 1.9491e+00 1.2640e-01 1.7747e-03 1.7738e-03
 9.1363e-04]
entropy correction =  -0.0056697284733311605
cycle= 3 E= -11.7110202583656  delta_E= -2.53  |g|= 0.591  |ddm|= 8.19
HOMO:  -0.08482805962640484 LUMO:  -0.08425882086730821
Fermi energy:      -0.0802817568
[2.0000e+00 2.0000e+00 2.0000e+00 2.0000e+00 2.0000e+00 2.0000e+00
 1.7641e+00 1.4259e+00 1.4257e+00 1.3780e+00 2.1913e-03 2.1909e-03
 1.9285e-03]
entropy correction =  -0.022065889450898917
cycle= 4 E= -11.6949632944282  delta_E= 0.0161  |g|= 0.859  |ddm|= 1.43
HOMO:  -0.1045666812812059 LUMO:  -0.10421722456798528
Fermi energy:      -0.1001113263
[2.0000e+00 2.0000e+00 2.0000e+00 2.0000e+00 2.0000e+00 2.0000e+00
 1.7713e+00 1.4183e+00 1.4182e+00 1.3890e+00 1.1260e-03 1.1259e-03
 1.0486e-03]
entropy correction =  -0.02191002968681769
cycle= 5 E= -11.8429783108111  delta_E= -0.148  |g|= 0.646  |ddm|= 0.401
HOMO:  -0.16163121541692138 LUMO:  -0.16093301698848056
Fermi energy:      -0.1569027389
[2.0000e+00 2.0000e+00 2.0000e+00 2.0000e+00 1.9999e+00 1.9999e+00
 1.7345e+00 1.4417e+00 1.4405e+00 1.3825e+00 2.9652e-04 2.9094e-04
 2.8848e-04]
entropy correction =  -0.021994503164350507
cycle= 6 E= -12.0092790013326  delta_E= -0.166  |g|= 0.144  |ddm|= 0.943
HOMO:  -0.1668467369891575 LUMO:  -0.16597024232757118
Fermi energy:      -0.1620539431
[2.0000e+00 2.0000e+00 2.0000e+00 2.0000e+00 1.9999e+00 1.9999e+00
 1.7333e+00 1.4477e+00 1.4457e+00 1.3728e+00 2.4835e-04 2.4211e-04
 2.3558e-04]
entropy correction =  -0.021986288728115085
cycle= 7 E= -12.009969686181  delta_E= -0.000691  |g|= 0.139  |ddm|= 0.29
HOMO:  -0.17612500514236773 LUMO:  -0.17452453256307704
Fermi energy:      -0.1710924127
[2.0000e+00 2.0000e+00 2.0000e+00 2.0000e+00 1.9999e+00 1.9999e+00
 1.7368e+00 1.4679e+00 1.4647e+00 1.3303e+00 1.8613e-04 1.8209e-04
 1.7932e-04]
entropy correction =  -0.021911323749369053
cycle= 8 E= -12.0211853813723  delta_E= -0.0112  |g|= 0.0204  |ddm|= 0.25
HOMO:  -0.1763830527963207 LUMO:  -0.17490242405436957
Fermi energy:      -0.1713300785
[2.0000e+00 2.0000e+00 2.0000e+00 2.0000e+00 1.9999e+00 1.9999e+00
 1.7235e+00 1.4671e+00 1.4663e+00 1.3428e+00 1.8798e-04 1.8297e-04
 1.8271e-04]
entropy correction =  -0.02198740799649897
cycle= 9 E= -12.021293734518  delta_E= -0.000108  |g|= 0.0172  |ddm|= 0.053
HOMO:  -0.17609210050855123 LUMO:  -0.17480207206834966
Fermi energy:      -0.1710709410
[2.0000e+00 2.0000e+00 2.0000e+00 2.0000e+00 1.9999e+00 1.9999e+00
 1.7132e+00 1.4660e+00 1.4638e+00 1.3567e+00 1.9708e-04 1.8933e-04
 1.8763e-04]
entropy correction =  -0.02204887863638568
cycle= 10 E= -12.0214699927116  delta_E= -0.000176  |g|= 0.00256  |ddm|= 0.0319
HOMO:  -0.17618950567802286 LUMO:  -0.17491155154776958
Fermi energy:      -0.1712073326
[2.0000e+00 2.0000e+00 2.0000e+00 2.0000e+00 1.9999e+00 1.9999e+00
 1.7212e+00 1.4633e+00 1.4607e+00 1.3544e+00 1.9877e-04 1.9211e-04
 1.9051e-04]
entropy correction =  -0.022013704703811553
cycle= 11 E= -12.0214766756816  delta_E= -6.68e-06  |g|= 0.000725  |ddm|= 0.00855
HOMO:  -0.17619118222587818 LUMO:  -0.1748986255424325
Fermi energy:      -0.1712003789
[2.0000e+00 2.0000e+00 2.0000e+00 2.0000e+00 1.9999e+00 1.9999e+00
 1.7215e+00 1.4629e+00 1.4614e+00 1.3538e+00 1.9841e-04 1.9185e-04
 1.9088e-04]
entropy correction =  -0.02201187104123208
cycle= 12 E= -12.0214770771878  delta_E= -4.02e-07  |g|= 0.000443  |ddm|= 0.00326
HOMO:  -0.17622724923794106 LUMO:  -0.17491326228237847
Fermi energy:      -0.1712208069
[2.0000e+00 2.0000e+00 2.0000e+00 2.0000e+00 1.9999e+00 1.9999e+00
 1.7210e+00 1.4627e+00 1.4626e+00 1.3533e+00 1.9764e-04 1.9075e-04
 1.9074e-04]
entropy correction =  -0.02201336689415864
cycle= 13 E= -12.0214772636738  delta_E= -1.86e-07  |g|= 0.000204  |ddm|= 0.0015
HOMO:  -0.17622718699310144 LUMO:  -0.17491316588553252
Fermi energy:      -0.1712207317
[2.0000e+00 2.0000e+00 2.0000e+00 2.0000e+00 1.9999e+00 1.9999e+00
 1.7210e+00 1.4627e+00 1.4626e+00 1.3533e+00 1.9763e-04 1.9075e-04
 1.9072e-04]
entropy correction =  -0.022013411783615235
cycle= 14 E= -12.0214772881421  delta_E= -2.45e-08  |g|= 3.51e-05  |ddm|= 0.000334
HOMO:  -0.17622386732626313 LUMO:  -0.17491020397533089
Fermi energy:      -0.1712174259
[2.0000e+00 2.0000e+00 2.0000e+00 2.0000e+00 1.9999e+00 1.9999e+00
 1.7210e+00 1.4627e+00 1.4626e+00 1.3534e+00 1.9765e-04 1.9075e-04
 1.9074e-04]
entropy correction =  -0.022013424559533895
cycle= 15 E= -12.021477288702  delta_E= -5.6e-10  |g|= 2.13e-05  |ddm|= 0.000114
HOMO:  -0.17621999017788467 LUMO:  -0.17490782047943346
Fermi energy:      -0.1712145908
[2.0000e+00 2.0000e+00 2.0000e+00 2.0000e+00 1.9999e+00 1.9999e+00
 1.7210e+00 1.4627e+00 1.4625e+00 1.3534e+00 1.9770e-04 1.9082e-04
 1.9076e-04]
entropy correction =  -0.022013418593592984
Extra cycle  E= -12.0214772835649  delta_E= 5.14e-09  |g|= 9.34e-05  |ddm|= 0.000202
entropy correction =  -0.022013418593592984
rks_ao.ne_frozen =  0
Set gradient conv threshold to 3.16228e-05
Initial guess from hcore.
HOMO:  -2.4436170097312155 LUMO:  -2.438543452196008
Fermi energy:      -2.4423382728
[2.     2.     2.     2.     2.     2.     2.     1.1276 1.1272 0.6377
 0.5214 0.5208 0.0654]
tot grids = 190200
init E= -8.75568421862384
HOMO:  0.02297224345698689 LUMO:  0.026445482415874112
Fermi energy:       0.0235202119
[2.0000e+00 2.0000e+00 2.0000e+00 2.0000e+00 2.0000e+00 2.0000e+00
 1.3206e+00 1.3205e+00 1.0547e+00 7.1554e-01 5.6737e-01 5.6723e-01
 3.2695e-01 2.3527e-02 2.3509e-02 1.9330e-02 1.9304e-02 1.5596e-02
 8.5202e-03 8.5144e-03 5.4155e-03 2.9865e-03 1.6921e-04 1.6883e-04]
entropy correction =  -0.0463261166856533
cycle= 1 E= -9.97846000900228  delta_E= -1.22  |g|= 1.62  |ddm|= 9.49
HOMO:  -0.34728476416148 LUMO:  -0.3440144172244354
Fermi energy:      -0.3462909894
[2.     2.     2.     2.     2.     2.     1.9852 1.1968 1.0991 0.7762
 0.4238 0.2607 0.2583]
entropy correction =  -0.03362129767868161
cycle= 2 E= -9.70725611273181  delta_E= 0.271  |g|= 2.06  |ddm|=  8.1
HOMO:  -0.19452413246045966 LUMO:  -0.1853257584976959
Fermi energy:      -0.1909555460
[2.0000e+00 2.0000e+00 2.0000e+00 2.0000e+00 2.0000e+00 2.0000e+00
 1.9177e+00 1.7137e+00 1.3424e+00 4.8982e-01 4.2012e-01 8.9267e-02
 2.0705e-02 5.4033e-03 4.8342e-04 3.1100e-04]
entropy correction =  -0.02549392323268212
cycle= 3 E= -11.4700939798101  delta_E= -1.76  |g|= 0.577  |ddm|= 3.92
HOMO:  -0.19692254168401924 LUMO:  -0.19429210356148674
Fermi energy:      -0.1950998422
[2.     2.     2.     2.     1.9985 1.9664 1.9559 1.5964 1.1803 0.9194
 0.3807 0.0025]
entropy correction =  -0.025634031273994516
cycle= 4 E= -9.43855256965138  delta_E= 2.03  |g|= 1.58  |ddm|= 4.19
HOMO:  -0.1625647340342059 LUMO:  -0.14917386357413737
Fermi energy:      -0.1563762455
[2.0000e+00 2.0000e+00 2.0000e+00 2.0000e+00 2.0000e+00 2.0000e+00
 1.9689e+00 1.8614e+00 1.5503e+00 3.8294e-01 2.2557e-01 5.2602e-03
 2.6781e-03 2.1608e-03 6.4334e-04]
entropy correction =  -0.01745813458637287
cycle= 5 E= -10.9976541812238  delta_E= -1.56  |g|= 0.935  |ddm|= 1.39
HOMO:  -0.14904154947617854 LUMO:  -0.14138225136872765
Fermi energy:      -0.1453444506
[2.     2.     2.     2.     2.     2.     1.9305 1.8817 1.3537 0.6233
 0.1496 0.0349 0.0201 0.0039 0.0022]
entropy correction =  -0.02058515319384729
cycle= 6 E= -11.0909984940524  delta_E= -0.0933  |g|= 0.884  |ddm|= 0.881
HOMO:  -0.14781646528740136 LUMO:  -0.1366100590365392
Fermi energy:      -0.1425907736
[2.0000e+00 2.0000e+00 2.0000e+00 2.0000e+00 2.0000e+00 2.0000e+00
 1.9002e+00 1.8025e+00 1.4797e+00 4.6432e-01 2.8841e-01 2.8736e-02
 2.6956e-02 4.8776e-03 4.1131e-03 1.1378e-04]
entropy correction =  -0.022276909384703076
cycle= 7 E= -11.2201080686622  delta_E= -0.129  |g|= 0.801  |ddm|= 0.857
HOMO:  -0.1355741539077027 LUMO:  -0.13342537208688626
Fermi energy:      -0.1353575625
[2.0000e+00 2.0000e+00 2.0000e+00 2.0000e+00 2.0000e+00 2.0000e+00
 1.8746e+00 1.8192e+00 1.0217e+00 8.0915e-01 3.3210e-01 7.7958e-02
 5.0435e-02 9.1961e-03 5.0597e-03 3.6775e-04 1.0882e-04]
entropy correction =  -0.026871835667416778
cycle= 8 E= -11.3014202780871  delta_E= -0.0813  |g|= 0.751  |ddm|= 1.15
HOMO:  -0.13274662287053293 LUMO:  -0.13005908345699957
Fermi energy:      -0.1309909525
[2.0000e+00 2.0000e+00 2.0000e+00 2.0000e+00 2.0000e+00 2.0000e+00
 1.6145e+00 1.5106e+00 1.1738e+00 9.0708e-01 4.5032e-01 2.3101e-01
 9.3498e-02 1.0959e-02 6.6077e-03 1.1812e-03 2.7534e-04 1.4267e-04]
entropy correction =  -0.03556847228727156
cycle= 9 E= -11.5700696324981  delta_E= -0.269  |g|= 0.517  |ddm|= 1.49
HOMO:  -0.11685059630979455 LUMO:  -0.1043187114271104
Fermi energy:      -0.1114238670
[2.0000e+00 2.0000e+00 2.0000e+00 2.0000e+00 2.0000e+00 2.0000e+00
 1.9525e+00 1.9060e+00 1.4950e+00 3.8900e-01 1.6177e-01 6.1886e-02
 2.4485e-02 5.8240e-03 2.6192e-03 5.9826e-04 1.2008e-04]
entropy correction =  -0.01878528890250199
cycle= 10 E= -10.8739516053336  delta_E= 0.696  |g|= 1.07  |ddm|= 2.71
HOMO:  -0.11332425203674387 LUMO:  -0.10619020372682114
Fermi energy:      -0.1096620692
[2.0000e+00 2.0000e+00 2.0000e+00 2.0000e+00 2.0000e+00 2.0000e+00
 1.7959e+00 1.7460e+00 1.3507e+00 6.6612e-01 2.7743e-01 9.8110e-02
 3.9999e-02 2.0702e-02 3.7932e-03 9.2862e-04 1.8495e-04]
entropy correction =  -0.02750070655145574
cycle= 11 E= -11.2688917865131  delta_E= -0.395  |g|= 0.822  |ddm|= 1.62
HOMO:  -0.1184445321119125 LUMO:  -0.11421511898222618
Fermi energy:      -0.1169871293
[2.0000e+00 2.0000e+00 2.0000e+00 2.0000e+00 2.0000e+00 2.0000e+00
 1.8485e+00 1.4352e+00 1.1447e+00 7.2969e-01 4.8045e-01 2.1172e-01
 1.2577e-01 1.8563e-02 3.1719e-03 1.7048e-03 3.0168e-04 1.3058e-04]
entropy correction =  -0.03399941967046759
cycle= 12 E= -11.4811277970486  delta_E= -0.212  |g|= 0.599  |ddm|= 1.42
HOMO:  -0.11427742712030724 LUMO:  -0.11286119621654002
Fermi energy:      -0.1140595902
[2.0000e+00 2.0000e+00 2.0000e+00 2.0000e+00 2.0000e+00 2.0000e+00
 1.4199e+00 1.1379e+00 1.0218e+00 8.8073e-01 8.3699e-01 4.9771e-01
 1.8274e-01 1.1907e-02 6.6519e-03 2.0429e-03 1.1514e-03 4.1477e-04]
entropy correction =  -0.04285071700426178
cycle= 13 E= -11.7565915947421  delta_E= -0.275  |g|= 0.254  |ddm|=  1.2
HOMO:  -0.11593291223075156 LUMO:  -0.11454907805061598
Fermi energy:      -0.1159957871
[2.0000e+00 2.0000e+00 2.0000e+00 2.0000e+00 2.0000e+00 2.0000e+00
 1.7090e+00 1.1345e+00 9.9371e-01 8.5633e-01 5.9941e-01 5.1688e-01
 1.6455e-01 1.6812e-02 5.5997e-03 1.9051e-03 9.8320e-04 2.6228e-04]
entropy correction =  -0.040222294216470056
cycle= 14 E= -11.685606635686  delta_E= 0.071  |g|= 0.394  |ddm|= 1.42
HOMO:  -0.11673810736700076 LUMO:  -0.1161540859639049
Fermi energy:      -0.1176343982
[2.0000e+00 2.0000e+00 2.0000e+00 2.0000e+00 2.0000e+00 2.0000e+00
 1.3345e+00 1.2709e+00 9.1061e-01 8.5304e-01 7.9738e-01 6.6669e-01
 1.4687e-01 1.1128e-02 4.7988e-03 2.6300e-03 9.5539e-04 4.8168e-04]
entropy correction =  -0.04302842741248733
cycle= 15 E= -11.7730603998247  delta_E= -0.0875  |g|= 0.211  |ddm|= 0.569
HOMO:  -0.11804568575276436 LUMO:  -0.11665251165301972
Fermi energy:      -0.1172025240
[2.0000e+00 2.0000e+00 2.0000e+00 2.0000e+00 2.0000e+00 2.0000e+00
 1.2317e+00 1.1951e+00 1.0841e+00 9.4505e-01 7.9899e-01 5.8798e-01
 1.3730e-01 1.0471e-02 4.8933e-03 3.0201e-03 7.8985e-04 5.7170e-04]
entropy correction =  -0.04317357079892405
cycle= 16 E= -11.7805883117215  delta_E= -0.00753  |g|= 0.196  |ddm|= 0.494
HOMO:  -0.11669105538151664 LUMO:  -0.1162426075696133
Fermi energy:      -0.1165446892
[2.0000e+00 2.0000e+00 2.0000e+00 2.0000e+00 2.0000e+00 2.0000e+00
 1.1572e+00 1.1171e+00 1.0146e+00 9.6980e-01 8.1428e-01 7.6777e-01
 1.3941e-01 1.0271e-02 4.6550e-03 3.3304e-03 8.1525e-04 6.7152e-04]
entropy correction =  -0.044150368272524804
cycle= 17 E= -11.8036444488922  delta_E= -0.0231  |g|= 0.117  |ddm|= 0.235
HOMO:  -0.11896884526429266 LUMO:  -0.11844505879547965
Fermi energy:      -0.1190921153
[2.0000e+00 2.0000e+00 2.0000e+00 2.0000e+00 2.0000e+00 2.0000e+00
 1.1843e+00 1.1272e+00 9.8767e-01 9.3538e-01 8.4099e-01 7.7390e-01
 1.3280e-01 8.7249e-03 4.5677e-03 3.1465e-03 6.5865e-04 5.7813e-04]
entropy correction =  -0.0439895159393689
cycle= 18 E= -11.8023383387109  delta_E= 0.00131  |g|= 0.123  |ddm|= 0.441
HOMO:  -0.118207005102543 LUMO:  -0.11794516582108064
Fermi energy:      -0.1181392059
[2.0000e+00 2.0000e+00 2.0000e+00 2.0000e+00 2.0000e+00 2.0000e+00
 1.0853e+00 1.0409e+00 1.0068e+00 9.8060e-01 8.8529e-01 8.4814e-01
 1.3468e-01 9.1866e-03 4.1468e-03 3.5511e-03 7.5211e-04 6.5162e-04]
entropy correction =  -0.04446343421281577
cycle= 19 E= -11.8154656562521  delta_E= -0.0131  |g|= 0.0338  |ddm|= 0.253
HOMO:  -0.11758539488067868 LUMO:  -0.11747172867135071
Fermi energy:      -0.1175725216
[2.0000e+00 2.0000e+00 2.0000e+00 2.0000e+00 2.0000e+00 2.0000e+00
 1.0709e+00 1.0465e+00 1.0013e+00 9.8992e-01 8.7990e-01 8.5759e-01
 1.3524e-01 9.5079e-03 3.9929e-03 3.6615e-03 7.6533e-04 7.0919e-04]
entropy correction =  -0.04449905674403642
cycle= 20 E= -11.8162843403614  delta_E= -0.000819  |g|= 0.0147  |ddm|= 0.0809
HOMO:  -0.11746956798162221 LUMO:  -0.1174055985527073
Fermi energy:      -0.1175155101
[2.0000e+00 2.0000e+00 2.0000e+00 2.0000e+00 2.0000e+00 2.0000e+00
 1.0654e+00 1.0641e+00 9.9541e-01 9.8901e-01 8.7764e-01 8.5426e-01
 1.3545e-01 9.5481e-03 3.8640e-03 3.8064e-03 7.4551e-04 7.3457e-04]
entropy correction =  -0.044489879827721346
cycle= 21 E= -11.8158551316856  delta_E= 0.000429  |g|= 0.0262  |ddm|= 0.0707
HOMO:  -0.11756027867913216 LUMO:  -0.117526754490229
Fermi energy:      -0.1175875190
[2.0000e+00 2.0000e+00 2.0000e+00 2.0000e+00 2.0000e+00 2.0000e+00
 1.0593e+00 1.0548e+00 9.9728e-01 9.9392e-01 8.8253e-01 8.5844e-01
 1.3512e-01 9.4877e-03 3.8673e-03 3.7836e-03 7.4530e-04 7.3080e-04]
entropy correction =  -0.04450495597466254
cycle= 22 E= -11.8164890427329  delta_E= -0.000634  |g|= 0.00309  |ddm|= 0.0556
HOMO:  -0.11749996170285121 LUMO:  -0.11749627370013731
Fermi energy:      -0.1175391299
[2.0000e+00 2.0000e+00 2.0000e+00 2.0000e+00 2.0000e+00 2.0000e+00
 1.0569e+00 1.0564e+00 9.9608e-01 9.9571e-01 8.8173e-01 8.5912e-01
 1.3536e-01 9.5155e-03 3.8361e-03 3.8331e-03 7.4063e-04 7.3993e-04]
entropy correction =  -0.04451009269949304
cycle= 23 E= -11.8164909759617  delta_E= -1.93e-06  |g|= 0.00279  |ddm|= 0.00939
HOMO:  -0.11749747432927725 LUMO:  -0.11748976048406293
Fermi energy:      -0.1175339837
[2.0000e+00 2.0000e+00 2.0000e+00 2.0000e+00 2.0000e+00 2.0000e+00
 1.0570e+00 1.0560e+00 9.9635e-01 9.9558e-01 8.8179e-01 8.5918e-01
 1.3539e-01 9.5199e-03 3.8417e-03 3.8309e-03 7.4152e-04 7.3973e-04]
entropy correction =  -0.04451111511712373
cycle= 24 E= -11.8164981068312  delta_E= -7.13e-06  |g|= 0.000459  |ddm|= 0.0056
HOMO:  -0.11750492647326385 LUMO:  -0.1175017697999446
Fermi energy:      -0.1175445006
[2.0000e+00 2.0000e+00 2.0000e+00 2.0000e+00 2.0000e+00 2.0000e+00
 1.0567e+00 1.0564e+00 9.9604e-01 9.9573e-01 8.8194e-01 8.5910e-01
 1.3537e-01 9.5164e-03 3.8365e-03 3.8344e-03 7.4056e-04 7.4017e-04]
entropy correction =  -0.04451068128751265
cycle= 25 E= -11.8164981938771  delta_E= -8.7e-08  |g|= 0.000365  |ddm|= 0.00166
HOMO:  -0.11750100676673923 LUMO:  -0.1174978490502855
Fermi energy:      -0.1175402168
[2.0000e+00 2.0000e+00 2.0000e+00 2.0000e+00 2.0000e+00 2.0000e+00
 1.0567e+00 1.0564e+00 9.9608e-01 9.9576e-01 8.8188e-01 8.5915e-01
 1.3538e-01 9.5180e-03 3.8375e-03 3.8342e-03 7.4074e-04 7.4024e-04]
entropy correction =  -0.04451094695236371
cycle= 26 E= -11.8164983126961  delta_E= -1.19e-07  |g|= 6.98e-05  |ddm|= 0.00083
HOMO:  -0.11750086445435236 LUMO:  -0.1174982928368801
Fermi energy:      -0.1175404034
[2.0000e+00 2.0000e+00 2.0000e+00 2.0000e+00 2.0000e+00 2.0000e+00
 1.0567e+00 1.0564e+00 9.9605e-01 9.9579e-01 8.8189e-01 8.5915e-01
 1.3538e-01 9.5179e-03 3.8369e-03 3.8347e-03 7.4065e-04 7.4031e-04]
entropy correction =  -0.04451092625985892
cycle= 27 E= -11.8164983177761  delta_E= -5.08e-09  |g|= 1.01e-05  |ddm|= 0.000271
HOMO:  -0.11750089585810446 LUMO:  -0.11749843779384629
Fermi energy:      -0.1175404898
[2.0000e+00 2.0000e+00 2.0000e+00 2.0000e+00 2.0000e+00 2.0000e+00
 1.0567e+00 1.0564e+00 9.9604e-01 9.9579e-01 8.8189e-01 8.5915e-01
 1.3538e-01 9.5179e-03 3.8369e-03 3.8348e-03 7.4064e-04 7.4031e-04]
entropy correction =  -0.04451092518632718
cycle= 28 E= -11.8164983177744  delta_E= 1.71e-12  |g|= 1.08e-05  |ddm|= 4.37e-05
HOMO:  -0.11750089569178175 LUMO:  -0.11749823807320466
Fermi energy:      -0.1175403609
[2.0000e+00 2.0000e+00 2.0000e+00 2.0000e+00 2.0000e+00 2.0000e+00
 1.0566e+00 1.0564e+00 9.9605e-01 9.9579e-01 8.8189e-01 8.5915e-01
 1.3538e-01 9.5179e-03 3.8370e-03 3.8347e-03 7.4065e-04 7.4031e-04]
entropy correction =  -0.04451093112515725
Extra cycle  E= -11.8164983057371  delta_E= 1.2e-08  |g|= 0.000113  |ddm|= 0.000276
degenerate subspace detected:
nsub = 35
subspace 1:
2, 3, 
subspace 2:
5, 6, 
subspace 3:
8, 9, 
subspace 4:
11, 12, 13, 
subspace 5:
15, 16, 
subspace 6:
17, 18, 
subspace 7:
21, 22, 
subspace 8:
23, 24, 
subspace 9:
25, 26, 
subspace 10:
27, 28, 
subspace 11:
29, 30, 
subspace 12:
31, 32, 
subspace 13:
36, 37, 
subspace 14:
38, 39, 
subspace 15:
40, 41, 42, 43, 
subspace 16:
45, 46, 
subspace 17:
47, 48, 
subspace 18:
49, 50, 
subspace 19:
51, 52, 
subspace 20:
53, 54, 55, 
subspace 21:
57, 58, 
subspace 22:
59, 60, 
subspace 23:
63, 64, 
subspace 24:
66, 67, 
subspace 25:
68, 69, 
subspace 26:
71, 72, 
subspace 27:
73, 74, 
subspace 28:
75, 76, 
subspace 29:
77, 78, 
subspace 30:
79, 80, 
subspace 31:
81, 82, 
subspace 32:
87, 88, 
subspace 33:
89, 90, 
subspace 34:
92, 93, 
subspace 35:
94, 95, 

 Adding contributions from fluctuation of occupation numbers.
degenerate subspace detected:
nsub = 30
subspace 1:
2, 3, 
subspace 2:
4, 5, 
subspace 3:
7, 8, 9, 10, 
subspace 4:
11, 12, 
subspace 5:
15, 16, 
subspace 6:
17, 18, 
subspace 7:
20, 21, 22, 23, 
subspace 8:
26, 27, 
subspace 9:
31, 32, 
subspace 10:
33, 34, 35, 
subspace 11:
36, 37, 
subspace 12:
39, 40, 41, 42, 
subspace 13:
46, 47, 
subspace 14:
48, 49, 
subspace 15:
51, 52, 
subspace 16:
53, 54, 
subspace 17:
57, 58, 
subspace 18:
59, 60, 
subspace 19:
62, 63, 64, 
subspace 20:
66, 67, 
subspace 21:
68, 69, 
subspace 22:
72, 73, 
subspace 23:
74, 75, 
subspace 24:
77, 78, 
subspace 25:
79, 80, 
subspace 26:
81, 82, 
subspace 27:
86, 87, 
subspace 28:
88, 89, 
subspace 29:
93, 94, 
subspace 30:
95, 96, 

 Adding contributions from fluctuation of occupation numbers.
entropy correction =  -0.04451093112515725
2-norm (grad),       max(grad):
2.047435499826033 ,  0.1677392035831991
time of hessian construction : 28.470  (cpu),  0.834  (wall) 
time of hessian construction : 23.310  (cpu),  0.584  (wall) 
f =  2.0959960629739394
|umat| =  1.4016178307710703
rks_ao.ne_frozen =  0
Set gradient conv threshold to 3.16228e-05
Initial guess from hcore.
HOMO:  -3.6524051486951232 LUMO:  -3.5810943553351406
Fermi energy:      -3.6171828516
[2.0000e+00 2.0000e+00 2.0000e+00 2.0000e+00 2.0000e+00 2.0000e+00
 2.0000e+00 2.0000e+00 1.9983e+00 1.4659e-03 2.9793e-04]
tot grids = 190200
init E= -188.392940246037
HOMO:  -0.4455914632783167 LUMO:  -0.42768359043597404
Fermi energy:      -0.4370904025
[2.     2.     2.     2.     2.     2.     2.     1.9953 1.6911 0.2645
 0.0491]
entropy correction =  -0.009525657763536107
cycle= 1 E= -190.528397152598  delta_E= -2.14  |g|= 2.03  |ddm|=  120
HOMO:  -1.276406045326348 LUMO:  -1.1017543909540377
Fermi energy:      -1.1884314410
[2. 2. 2. 2. 2. 2. 2. 2. 2.]
entropy correction =  -1.1830105286774634e-08
cycle= 2 E= -191.878206635856  delta_E= -1.35  |g|= 0.986  |ddm|= 59.4
HOMO:  -0.8312360915418129 LUMO:  -0.7792653410837644
Fermi energy:      -0.8052686863
[2.    2.    2.    2.    2.    2.    2.    2.    1.989 0.011]
entropy correction =  -0.000687235607022948
cycle= 3 E= -192.201511087741  delta_E= -0.323  |g|= 0.217  |ddm|= 13.5
HOMO:  -0.8342358973476701 LUMO:  -0.7721305472104838
Fermi energy:      -0.8033371240
[2.0000e+00 2.0000e+00 2.0000e+00 2.0000e+00 2.0000e+00 2.0000e+00
 2.0000e+00 2.0000e+00 1.9959e+00 3.8870e-03 2.5103e-04]
entropy correction =  -0.00030203025001717976
cycle= 4 E= -192.212439945939  delta_E= -0.0109  |g|= 0.16  |ddm|= 6.13
HOMO:  -0.8371347778589563 LUMO:  -0.7770480917447784
Fermi energy:      -0.8071488388
[2.0000e+00 2.0000e+00 2.0000e+00 2.0000e+00 2.0000e+00 2.0000e+00
 2.0000e+00 2.0000e+00 1.9950e+00 4.8468e-03 1.1672e-04]
entropy correction =  -0.00035028606691612114
cycle= 5 E= -192.223559278078  delta_E= -0.0111  |g|= 0.0345  |ddm|= 3.63
HOMO:  -0.8377118128612806 LUMO:  -0.7775912896177344
Fermi energy:      -0.8077206325
[2.0000e+00 2.0000e+00 2.0000e+00 2.0000e+00 2.0000e+00 2.0000e+00
 2.0000e+00 2.0000e+00 1.9950e+00 4.8193e-03 1.3919e-04]
entropy correction =  -0.00035039105959919393
cycle= 6 E= -192.224070313422  delta_E= -0.000511  |g|= 0.00626  |ddm|= 0.639
HOMO:  -0.8381219723433451 LUMO:  -0.7778917417263985
Fermi energy:      -0.8080751625
[2.0000e+00 2.0000e+00 2.0000e+00 2.0000e+00 2.0000e+00 2.0000e+00
 2.0000e+00 2.0000e+00 1.9951e+00 4.7675e-03 1.3625e-04]
entropy correction =  -0.0003470502993488993
cycle= 7 E= -192.224086460985  delta_E= -1.61e-05  |g|= 0.000622  |ddm|= 0.0742
HOMO:  -0.8380642630813487 LUMO:  -0.7778658856311276
Fermi energy:      -0.8080331467
[2.0000e+00 2.0000e+00 2.0000e+00 2.0000e+00 2.0000e+00 2.0000e+00
 2.0000e+00 2.0000e+00 1.9951e+00 4.7829e-03 1.3623e-04]
entropy correction =  -0.0003479755698811337
cycle= 8 E= -192.224086590126  delta_E= -1.29e-07  |g|= 0.00031  |ddm|= 0.0172
HOMO:  -0.8380246104583563 LUMO:  -0.7778338296686945
Fermi energy:      -0.8079974145
[2.0000e+00 2.0000e+00 2.0000e+00 2.0000e+00 2.0000e+00 2.0000e+00
 2.0000e+00 2.0000e+00 1.9951e+00 4.7865e-03 1.3656e-04]
entropy correction =  -0.0003482123857411878
cycle= 9 E= -192.224086632741  delta_E= -4.26e-08  |g|= 3.25e-05  |ddm|= 0.00637
HOMO:  -0.838019248512981 LUMO:  -0.7778295192773798
Fermi energy:      -0.8079925608
[2.0000e+00 2.0000e+00 2.0000e+00 2.0000e+00 2.0000e+00 2.0000e+00
 2.0000e+00 2.0000e+00 1.9951e+00 4.7870e-03 1.3654e-04]
entropy correction =  -0.00034824211223218537
cycle= 10 E= -192.224086633179  delta_E= -4.38e-10  |g|= 2.97e-06  |ddm|= 0.000456
HOMO:  -0.8380197869250754 LUMO:  -0.7778300610994433
Fermi energy:      -0.8079931005
[2.0000e+00 2.0000e+00 2.0000e+00 2.0000e+00 2.0000e+00 2.0000e+00
 2.0000e+00 2.0000e+00 1.9951e+00 4.7870e-03 1.3654e-04]
entropy correction =  -0.00034824217382638543
Extra cycle  E= -192.224086633176  delta_E= 3.67e-12  |g|= 3.73e-06  |ddm|= 0.000102
entropy correction =  -0.00034824217382638543
rks_ao.ne_frozen =  0
Set gradient conv threshold to 3.16228e-05
Initial guess from hcore.
HOMO:  -2.7047161359456764 LUMO:  -2.6796529299133467
Fermi energy:      -2.6932267607
[2.     2.     2.     2.     2.     2.     2.     1.9991 1.8174 0.1242
 0.0593]
tot grids = 190200
init E= -194.737187426583
HOMO:  -0.4208869351176797 LUMO:  -0.3951854068773348
Fermi energy:      -0.4080227380
[2.     2.     2.     2.     2.     2.     2.     1.9993 1.8582 0.1425]
entropy correction =  -0.005162252190469994
cycle= 1 E= -196.139057528173  delta_E= -1.4  |g|= 0.899  |ddm|= 64.4
HOMO:  -0.626141644377045 LUMO:  -0.6091090860669611
Fermi energy:      -0.6175874737
[2.     2.     2.     2.     2.     2.     2.     1.9891 1.6939 0.3101
 0.007 ]
entropy correction =  -0.009163301519114568
cycle= 2 E= -196.203923801669  delta_E= -0.0649  |g|= 0.685  |ddm|= 28.3
HOMO:  -0.580464953166942 LUMO:  -0.5444366992990841
Fermi energy:      -0.5622958398
[2.0000e+00 2.0000e+00 2.0000e+00 2.0000e+00 2.0000e+00 2.0000e+00
 1.9998e+00 1.9968e+00 1.9485e+00 5.4672e-02 1.6636e-04]
entropy correction =  -0.0025863606718553485
cycle= 3 E= -196.273070639696  delta_E= -0.0691  |g|= 0.63  |ddm|= 24.5
HOMO:  -0.551679447073058 LUMO:  -0.5396190002590475
Fermi energy:      -0.5457167467
[2.     2.     2.     2.     2.     2.     2.     1.9987 1.5344 0.456
 0.0109]
entropy correction =  -0.011188113335784912
cycle= 4 E= -196.420690564538  delta_E= -0.148  |g|= 0.174  |ddm|= 14.1
HOMO:  -0.5552395181096202 LUMO:  -0.5435018931343277
Fermi energy:      -0.5494094249
[2.     2.     2.     2.     2.     2.     2.     1.9913 1.5248 0.4696
 0.0143]
entropy correction =  -0.011637364127304711
cycle= 5 E= -196.400542951732  delta_E= 0.0201  |g|= 0.265  |ddm|= 6.11
HOMO:  -0.556301254086949 LUMO:  -0.5419337223953296
Fermi energy:      -0.5495116640
[2.     2.     2.     2.     2.     2.     2.     1.9949 1.5908 0.3602
 0.054 ]
entropy correction =  -0.011201673520577762
cycle= 6 E= -196.42468785899  delta_E= -0.0241  |g|= 0.14  |ddm|= 6.09
HOMO:  -0.5580804452459193 LUMO:  -0.5419118799857011
Fermi energy:      -0.5505461868
[2.     2.     2.     2.     2.     2.     2.     1.9967 1.6372 0.302
 0.0642]
entropy correction =  -0.010521624460664193
cycle= 7 E= -196.43362765637  delta_E= -0.00894  |g|= 0.038  |ddm|= 2.22
HOMO:  -0.5577219333007649 LUMO:  -0.5430560202913
Fermi energy:      -0.5510396325
[2.     2.     2.     2.     2.     2.     2.     1.9965 1.5838 0.3369
 0.0828]
entropy correction =  -0.011501096238387788
cycle= 8 E= -196.434154893229  delta_E= -0.000527  |g|= 0.0216  |ddm|= 0.737
HOMO:  -0.557983808239715 LUMO:  -0.5431032274576142
Fermi energy:      -0.5511973024
[2.     2.     2.     2.     2.     2.     2.     1.9965 1.5906 0.3307
 0.0821]
entropy correction =  -0.01139448389642695
cycle= 9 E= -196.4343356238  delta_E= -0.000181  |g|= 0.0106  |ddm|= 0.256
HOMO:  -0.557922738045348 LUMO:  -0.5429662814086547
Fermi energy:      -0.5511024348
[2.     2.     2.     2.     2.     2.     2.     1.9966 1.5928 0.3284
 0.0821]
entropy correction =  -0.011356242041535606
cycle= 10 E= -196.434368193015  delta_E= -3.26e-05  |g|= 0.00704  |ddm|= 0.0835
HOMO:  -0.5577118791818505 LUMO:  -0.5429334328721461
Fermi energy:      -0.5509863715
[2.     2.     2.     2.     2.     2.     2.     1.9968 1.5867 0.333
 0.0836]
entropy correction =  -0.011453791312689152
cycle= 11 E= -196.434388921164  delta_E= -2.07e-05  |g|= 0.00218  |ddm|= 0.141
HOMO:  -0.5577509919457144 LUMO:  -0.5429518361502004
Fermi energy:      -0.5510144434
[2.     2.     2.     2.     2.     2.     2.     1.9968 1.5874 0.3325
 0.0834]
entropy correction =  -0.011442153624228776
cycle= 12 E= -196.434391761538  delta_E= -2.84e-06  |g|= 0.000725  |ddm|= 0.0283
HOMO:  -0.5577544280913947 LUMO:  -0.54295797767981
Fermi energy:      -0.5510195213
[2.     2.     2.     2.     2.     2.     2.     1.9968 1.5873 0.3325
 0.0834]
entropy correction =  -0.011443704266554777
cycle= 13 E= -196.434392020842  delta_E= -2.59e-07  |g|= 0.000205  |ddm|= 0.0102
HOMO:  -0.5577484204102153 LUMO:  -0.5429534230066175
Fermi energy:      -0.5510141749
[2.     2.     2.     2.     2.     2.     2.     1.9968 1.5872 0.3326
 0.0834]
entropy correction =  -0.011444399961492198
cycle= 14 E= -196.434392043529  delta_E= -2.27e-08  |g|= 3.24e-05  |ddm|= 0.00252
HOMO:  -0.557749611987913 LUMO:  -0.5429549512562988
Fermi energy:      -0.5510155352
[2.     2.     2.     2.     2.     2.     2.     1.9968 1.5872 0.3326
 0.0834]
entropy correction =  -0.011444585487255021
cycle= 15 E= -196.434392044107  delta_E= -5.78e-10  |g|= 1.3e-06  |ddm|= 0.000618
HOMO:  -0.5577494134668771 LUMO:  -0.5429547743465043
Fermi energy:      -0.5510153533
[2.     2.     2.     2.     2.     2.     2.     1.9968 1.5872 0.3326
 0.0834]
entropy correction =  -0.011444604325621291
Extra cycle  E= -196.434392044104  delta_E= 2.53e-12  |g|= 1.87e-06  |ddm|= 3.92e-05
degenerate subspace detected:
nsub = 10
subspace 1:
27, 28, 
subspace 2:
40, 41, 
subspace 3:
42, 43, 
subspace 4:
45, 46, 
subspace 5:
49, 50, 
subspace 6:
51, 52, 
subspace 7:
54, 55, 
subspace 8:
61, 62, 
subspace 9:
64, 65, 
subspace 10:
69, 70, 

 Adding contributions from fluctuation of occupation numbers.
degenerate subspace detected:
nsub = 12
subspace 1:
12, 13, 
subspace 2:
21, 22, 23, 
subspace 3:
26, 27, 
subspace 4:
28, 29, 
subspace 5:
37, 38, 39, 40, 41, 
subspace 6:
45, 46, 47, 
subspace 7:
48, 49, 
subspace 8:
51, 52, 
subspace 9:
59, 60, 
subspace 10:
62, 63, 
subspace 11:
68, 69, 
subspace 12:
74, 75, 

 Adding contributions from fluctuation of occupation numbers.
entropy correction =  -0.011444604325621291
2-norm (grad),       max(grad):
518.9632069829473 ,  62.5460846000323
time of hessian construction : 13.970  (cpu),  0.350  (wall) 
time of hessian construction : 20.490  (cpu),  0.520  (wall) 
f =  134661.4051010127
|umat| =  0.055573768161974305
rks_ao.ne_frozen =  0
Set gradient conv threshold to 3.16228e-05
Initial guess from hcore.
HOMO:  -3.4811058768860534 LUMO:  -3.231729558565407
Fermi energy:      -3.3573265800
[2. 2. 2. 2. 2. 2. 2. 2. 2.]
tot grids = 190200
init E= -8.76082377330008
HOMO:  0.04238365528926674 LUMO:  0.05338770686473162
Fermi energy:       0.0471026631
[2.0000e+00 2.0000e+00 2.0000e+00 2.0000e+00 2.0000e+00 2.0000e+00
 1.7903e+00 1.7902e+00 1.4397e+00 4.4298e-01 4.4276e-01 4.6074e-02
 4.0767e-02 3.4143e-03 1.6062e-03 1.6060e-03 1.9950e-04 1.9929e-04
 1.3824e-04]
entropy correction =  -0.025594600916379388
cycle= 1 E= -5.69274283653301  delta_E= 3.07  |g|=  3.2  |ddm|= 11.3
HOMO:  -1.032322473667053 LUMO:  -0.8120834942720381
Fermi energy:      -0.9215224343
[2. 2. 2. 2. 2. 2. 2. 2. 2.]
entropy correction =  -3.0461546244312795e-10
cycle= 2 E= -9.18104387508031  delta_E= -3.49  |g|= 1.72  |ddm|= 10.9
HOMO:  -0.2061407588063385 LUMO:  -0.17442707635076565
Fermi energy:      -0.1879087989
[2.0000e+00 2.0000e+00 2.0000e+00 2.0000e+00 2.0000e+00 2.0000e+00
 1.9708e+00 1.9492e+00 1.9492e+00 1.2638e-01 1.7737e-03 1.7727e-03
 9.1395e-04]
entropy correction =  -0.0056687635585155735
cycle= 3 E= -11.7110039543316  delta_E= -2.53  |g|= 0.591  |ddm|= 8.19
HOMO:  -0.08482720823682213 LUMO:  -0.08425885727864299
Fermi energy:      -0.0802810337
[2.0000e+00 2.0000e+00 2.0000e+00 2.0000e+00 2.0000e+00 2.0000e+00
 1.7641e+00 1.4259e+00 1.4257e+00 1.3780e+00 2.1896e-03 2.1893e-03
 1.9287e-03]
entropy correction =  -0.022066022231719357
cycle= 4 E= -11.6949496677305  delta_E= 0.0161  |g|= 0.859  |ddm|= 1.43
HOMO:  -0.1045660550092655 LUMO:  -0.10421722828836881
Fermi energy:      -0.1001107969
[2.0000e+00 2.0000e+00 2.0000e+00 2.0000e+00 2.0000e+00 2.0000e+00
 1.7712e+00 1.4182e+00 1.4182e+00 1.3890e+00 1.1253e-03 1.1252e-03
 1.0487e-03]
entropy correction =  -0.021910154555557556
cycle= 5 E= -11.8429709875677  delta_E= -0.148  |g|= 0.646  |ddm|= 0.401
HOMO:  -0.16166380256494522 LUMO:  -0.16096472184820218
Fermi energy:      -0.1569338503
[2.0000e+00 2.0000e+00 2.0000e+00 2.0000e+00 1.9999e+00 1.9999e+00
 1.7343e+00 1.4417e+00 1.4406e+00 1.3826e+00 2.9644e-04 2.9091e-04
 2.8871e-04]
entropy correction =  -0.02199548326293051
cycle= 6 E= -12.0095580711924  delta_E= -0.167  |g|= 0.142  |ddm|= 0.943
HOMO:  -0.16698265406289642 LUMO:  -0.1661033742982502
Fermi energy:      -0.1621875078
[2.0000e+00 2.0000e+00 2.0000e+00 2.0000e+00 1.9999e+00 1.9999e+00
 1.7331e+00 1.4477e+00 1.4459e+00 1.3727e+00 2.4698e-04 2.4079e-04
 2.3381e-04]
entropy correction =  -0.021986878646110403
cycle= 7 E= -12.009781613954  delta_E= -0.000224  |g|= 0.14  |ddm|= 0.289
HOMO:  -0.1761318139918714 LUMO:  -0.17453196627649648
Fermi energy:      -0.1711014672
[2.0000e+00 2.0000e+00 2.0000e+00 2.0000e+00 1.9999e+00 1.9999e+00
 1.7369e+00 1.4681e+00 1.4645e+00 1.3302e+00 1.8631e-04 1.8218e-04
 1.7902e-04]
entropy correction =  -0.021910652468980017
cycle= 8 E= -12.021191862491  delta_E= -0.0114  |g|= 0.02  |ddm|= 0.25
HOMO:  -0.17638830789362359 LUMO:  -0.17490933055447108
Fermi energy:      -0.1713354690
[2.0000e+00 2.0000e+00 2.0000e+00 2.0000e+00 1.9999e+00 1.9999e+00
 1.7233e+00 1.4672e+00 1.4663e+00 1.3429e+00 1.8809e-04 1.8299e-04
 1.8272e-04]
entropy correction =  -0.021988259786223454
cycle= 9 E= -12.0212860173079  delta_E= -9.42e-05  |g|= 0.0174  |ddm|= 0.0528
HOMO:  -0.1760903706518694 LUMO:  -0.17480162205289268
Fermi energy:      -0.1710706842
[2.0000e+00 2.0000e+00 2.0000e+00 2.0000e+00 1.9999e+00 1.9999e+00
 1.7132e+00 1.4661e+00 1.4637e+00 1.3567e+00 1.9716e-04 1.8936e-04
 1.8756e-04]
entropy correction =  -0.02204880752888787
cycle= 10 E= -12.0214658624153  delta_E= -0.00018  |g|= 0.00261  |ddm|= 0.0321
HOMO:  -0.1761853134160548 LUMO:  -0.17490800890085154
Fermi energy:      -0.1712041489
[2.0000e+00 2.0000e+00 2.0000e+00 2.0000e+00 1.9999e+00 1.9999e+00
 1.7213e+00 1.4634e+00 1.4606e+00 1.3543e+00 1.9884e-04 1.9214e-04
 1.9043e-04]
entropy correction =  -0.022013560381092957
cycle= 11 E= -12.0214727361227  delta_E= -6.87e-06  |g|= 0.000763  |ddm|= 0.00871
HOMO:  -0.17618742888214728 LUMO:  -0.17489456111900883
Fermi energy:      -0.1711965926
[2.0000e+00 2.0000e+00 2.0000e+00 2.0000e+00 1.9999e+00 1.9999e+00
 1.7216e+00 1.4628e+00 1.4614e+00 1.3538e+00 1.9847e-04 1.9185e-04
 1.9091e-04]
entropy correction =  -0.022011560401637553
cycle= 12 E= -12.0214732052222  delta_E= -4.69e-07  |g|= 0.000435  |ddm|= 0.00333
HOMO:  -0.17622422123650813 LUMO:  -0.1749097283075136
Fermi energy:      -0.1712177941
[2.0000e+00 2.0000e+00 2.0000e+00 2.0000e+00 1.9999e+00 1.9999e+00
 1.7210e+00 1.4627e+00 1.4626e+00 1.3533e+00 1.9768e-04 1.9074e-04
 1.9073e-04]
entropy correction =  -0.022013090321953803
cycle= 13 E= -12.0214733811294  delta_E= -1.76e-07  |g|= 0.000217  |ddm|= 0.00149
HOMO:  -0.17622422104031743 LUMO:  -0.17490967437399618
Fermi energy:      -0.1712177754
[2.0000e+00 2.0000e+00 2.0000e+00 2.0000e+00 1.9999e+00 1.9999e+00
 1.7210e+00 1.4627e+00 1.4626e+00 1.3533e+00 1.9768e-04 1.9074e-04
 1.9071e-04]
entropy correction =  -0.022013139276787056
cycle= 14 E= -12.0214734089817  delta_E= -2.79e-08  |g|= 3.31e-05  |ddm|= 0.00035
HOMO:  -0.17622077387698243 LUMO:  -0.17490664138233472
Fermi energy:      -0.1712143768
[2.0000e+00 2.0000e+00 2.0000e+00 2.0000e+00 1.9999e+00 1.9999e+00
 1.7210e+00 1.4627e+00 1.4626e+00 1.3533e+00 1.9770e-04 1.9074e-04
 1.9073e-04]
entropy correction =  -0.022013149863889938
cycle= 15 E= -12.0214734094755  delta_E= -4.94e-10  |g|= 2.07e-05  |ddm|= 0.000112
HOMO:  -0.17621714152080958 LUMO:  -0.17490442156890415
Fermi energy:      -0.1712117340
[2.0000e+00 2.0000e+00 2.0000e+00 2.0000e+00 1.9999e+00 1.9999e+00
 1.7210e+00 1.4627e+00 1.4625e+00 1.3534e+00 1.9774e-04 1.9081e-04
 1.9075e-04]
entropy correction =  -0.022013145943815635
Extra cycle  E= -12.0214734045627  delta_E= 4.91e-09  |g|= 9.13e-05  |ddm|= 0.000197
entropy correction =  -0.022013145943815635
rks_ao.ne_frozen =  0
Set gradient conv threshold to 3.16228e-05
Initial guess from hcore.
HOMO:  -2.443567861487081 LUMO:  -2.4386397148039647
Fermi energy:      -2.4423378720
[2.     2.     2.     2.     2.     2.     2.     1.1227 1.1224 0.6462
 0.522  0.5213 0.0654]
tot grids = 190200
init E= -8.75710101265359
HOMO:  0.022932504723101616 LUMO:  0.02645019176509865
Fermi energy:       0.0235156402
[2.0000e+00 2.0000e+00 2.0000e+00 2.0000e+00 2.0000e+00 2.0000e+00
 1.3203e+00 1.3201e+00 1.0582e+00 7.1469e-01 5.6711e-01 5.6687e-01
 3.2674e-01 2.3085e-02 2.3065e-02 1.9307e-02 1.9280e-02 1.5494e-02
 8.5122e-03 8.5070e-03 5.4140e-03 2.9776e-03 1.6884e-04 1.6843e-04]
entropy correction =  -0.04629538472276914
cycle= 1 E= -9.97842466841051  delta_E= -1.22  |g|= 1.62  |ddm|= 9.48
HOMO:  -0.34724337390693805 LUMO:  -0.3442280070636933
Fermi energy:      -0.3463158235
[2.     2.     2.     2.     2.     2.     1.9851 1.1876 1.0925 0.7942
 0.4246 0.2592 0.2567]
entropy correction =  -0.03366204801429786
cycle= 2 E= -9.70979334078362  delta_E= 0.269  |g|= 2.06  |ddm|=  8.1
HOMO:  -0.19438072193574413 LUMO:  -0.1854098031477903
Fermi energy:      -0.1908858322
[2.0000e+00 2.0000e+00 2.0000e+00 2.0000e+00 2.0000e+00 2.0000e+00
 1.9095e+00 1.6915e+00 1.3359e+00 5.0128e-01 4.4580e-01 9.0102e-02
 1.9359e-02 5.6342e-03 4.6144e-04 3.0882e-04]
entropy correction =  -0.026053532637186724
cycle= 3 E= -11.4905011786045  delta_E= -1.78  |g|= 0.561  |ddm|= 3.87
HOMO:  -0.1984763667082524 LUMO:  -0.1915562042230884
Fermi energy:      -0.1938205387
[2.0000e+00 2.0000e+00 2.0000e+00 2.0000e+00 1.9978e+00 1.9782e+00
 1.9514e+00 1.5271e+00 1.4346e+00 7.7736e-01 3.3173e-01 1.7802e-03]
entropy correction =  -0.024499475951934916
cycle= 4 E= -9.82997880928854  delta_E= 1.66  |g|= 1.47  |ddm|= 4.12
HOMO:  -0.1608033106506567 LUMO:  -0.14741163283900446
Fermi energy:      -0.1545251192
[2.0000e+00 2.0000e+00 2.0000e+00 2.0000e+00 2.0000e+00 2.0000e+00
 1.9630e+00 1.8550e+00 1.5565e+00 3.8848e-01 2.2280e-01 6.8481e-03
 3.8079e-03 2.6437e-03 8.8858e-04]
entropy correction =  -0.01774230114275087
cycle= 5 E= -11.0290584242381  delta_E= -1.2  |g|= 0.914  |ddm|= 1.32
HOMO:  -0.14867965574436234 LUMO:  -0.140719235227383
Fermi energy:      -0.1448427819
[2.     2.     2.     2.     2.     2.     1.9288 1.8773 1.3659 0.6095
 0.1587 0.0334 0.0199 0.0039 0.0024]
entropy correction =  -0.020657128747798605
cycle= 6 E= -11.0986062839854  delta_E= -0.0695  |g|= 0.878  |ddm|= 0.842
HOMO:  -0.1475116970623755 LUMO:  -0.13597165750405144
Fermi energy:      -0.1421481590
[2.0000e+00 2.0000e+00 2.0000e+00 2.0000e+00 2.0000e+00 2.0000e+00
 1.9017e+00 1.7893e+00 1.4902e+00 4.5051e-01 3.0322e-01 2.8511e-02
 2.7272e-02 4.7156e-03 4.3758e-03 1.3811e-04]
entropy correction =  -0.0223952299574729
cycle= 7 E= -11.2220900507883  delta_E= -0.123  |g|= 0.798  |ddm|= 0.778
HOMO:  -0.1366741149209019 LUMO:  -0.1329226298876327
Fermi energy:      -0.1354627274
[2.0000e+00 2.0000e+00 2.0000e+00 2.0000e+00 2.0000e+00 2.0000e+00
 1.8434e+00 1.7955e+00 1.1205e+00 7.5132e-01 3.5443e-01 7.6151e-02
 4.3544e-02 9.0608e-03 5.5018e-03 3.5117e-04]
entropy correction =  -0.027367274088687
cycle= 8 E= -11.3349640874746  delta_E= -0.113  |g|= 0.727  |ddm|= 1.24
HOMO:  -0.13356878314698162 LUMO:  -0.12796009735963576
Fermi energy:      -0.1307764395
[2.0000e+00 2.0000e+00 2.0000e+00 2.0000e+00 2.0000e+00 2.0000e+00
 1.5924e+00 1.5339e+00 1.2722e+00 7.2558e-01 5.4119e-01 2.0880e-01
 1.0630e-01 1.1480e-02 6.2646e-03 1.4707e-03 3.4224e-04 1.0759e-04]
entropy correction =  -0.0355033999058668
cycle= 9 E= -11.5798172312059  delta_E= -0.245  |g|= 0.507  |ddm|= 1.75
HOMO:  -0.11970642828761635 LUMO:  -0.10243475890740074
Fermi energy:      -0.1118140567
[2.0000e+00 2.0000e+00 2.0000e+00 2.0000e+00 2.0000e+00 2.0000e+00
 1.9592e+00 1.9380e+00 1.6580e+00 2.6573e-01 9.4815e-02 5.8513e-02
 1.7315e-02 5.6633e-03 1.9034e-03 6.4299e-04 1.1279e-04]
entropy correction =  -0.014908658934110447
cycle= 10 E= -10.6563932897448  delta_E= 0.923  |g|= 1.18  |ddm|= 2.76
HOMO:  -0.11417847199603698 LUMO:  -0.10551257708747606
Fermi energy:      -0.1098279482
[2.0000e+00 2.0000e+00 2.0000e+00 2.0000e+00 2.0000e+00 2.0000e+00
 1.8489e+00 1.7398e+00 1.4095e+00 5.9339e-01 2.8096e-01 6.8054e-02
 3.7087e-02 1.6719e-02 4.6329e-03 7.0659e-04 1.0035e-04]
entropy correction =  -0.02584799077869802
cycle= 11 E= -11.2333113743682  delta_E= -0.577  |g|= 0.849  |ddm|= 1.62
HOMO:  -0.1151931411111023 LUMO:  -0.11311996605458549
Fermi energy:      -0.1146854590
[2.0000e+00 2.0000e+00 2.0000e+00 2.0000e+00 2.0000e+00 2.0000e+00
 1.7545e+00 1.3516e+00 1.0507e+00 8.4472e-01 6.1606e-01 1.8605e-01
 1.7057e-01 1.8579e-02 4.7731e-03 1.8483e-03 4.4912e-04 1.7236e-04]
entropy correction =  -0.036739024207839935
cycle= 12 E= -11.5809263797631  delta_E= -0.348  |g|= 0.533  |ddm|=  1.3
HOMO:  -0.11327705597767657 LUMO:  -0.11257126678010973
Fermi energy:      -0.1135861262
[2.0000e+00 2.0000e+00 2.0000e+00 2.0000e+00 2.0000e+00 2.0000e+00
 1.4354e+00 1.0146e+00 9.6910e-01 8.9886e-01 8.4665e-01 6.3694e-01
 1.7397e-01 1.2756e-02 7.7128e-03 2.1311e-03 1.4095e-03 4.0991e-04]
entropy correction =  -0.04351551291485693
cycle= 13 E= -11.7782577114209  delta_E= -0.197  |g|= 0.204  |ddm|= 1.15
HOMO:  -0.11644410455198811 LUMO:  -0.11590028376437733
Fermi energy:      -0.1166591745
[2.0000e+00 2.0000e+00 2.0000e+00 2.0000e+00 2.0000e+00 2.0000e+00
 1.4213e+00 1.1351e+00 9.7850e-01 9.2426e-01 8.0819e-01 5.5312e-01
 1.5883e-01 1.0208e-02 6.9203e-03 1.9092e-03 1.1744e-03 3.7708e-04]
entropy correction =  -0.04279966226714565
cycle= 14 E= -11.7789162460251  delta_E= -0.000659  |g|= 0.19  |ddm|= 1.15
HOMO:  -0.11788227412804425 LUMO:  -0.11740716218437286
Fermi energy:      -0.1179990809
[2.0000e+00 2.0000e+00 2.0000e+00 2.0000e+00 2.0000e+00 2.0000e+00
 1.1878e+00 1.0855e+00 9.8832e-01 9.4088e-01 8.6635e-01 7.7002e-01
 1.4187e-01 9.1334e-03 5.1155e-03 3.6900e-03 6.9117e-04 5.6620e-04]
entropy correction =  -0.044223361124315005
cycle= 15 E= -11.8021256419469  delta_E= -0.0232  |g|= 0.125  |ddm|= 0.695
HOMO:  -0.11694552583532986 LUMO:  -0.11679838606179577
Fermi energy:      -0.1170973128
[2.0000e+00 2.0000e+00 2.0000e+00 2.0000e+00 2.0000e+00 2.0000e+00
 1.1163e+00 1.0432e+00 9.8482e-01 9.7012e-01 8.7980e-01 8.4756e-01
 1.3893e-01 9.7771e-03 4.3689e-03 3.6226e-03 8.0329e-04 6.9928e-04]
entropy correction =  -0.04450468556074132
cycle= 16 E= -11.8141274013832  delta_E= -0.012  |g|= 0.0497  |ddm|= 0.238
HOMO:  -0.11721437366543237 LUMO:  -0.11709534393031368
Fermi energy:      -0.1172232013
[2.0000e+00 2.0000e+00 2.0000e+00 2.0000e+00 2.0000e+00 2.0000e+00
 1.1116e+00 1.0521e+00 9.9912e-01 9.8721e-01 8.7319e-01 8.2152e-01
 1.3632e-01 9.6766e-03 4.2416e-03 3.5223e-03 7.9360e-04 6.8245e-04]
entropy correction =  -0.04441398978073343
cycle= 17 E= -11.8133029784511  delta_E= 0.000824  |g|= 0.0577  |ddm|= 0.179
HOMO:  -0.11731867817676862 LUMO:  -0.11684794208676462
Fermi energy:      -0.1175151848
[2.0000e+00 2.0000e+00 2.0000e+00 2.0000e+00 2.0000e+00 2.0000e+00
 1.1981e+00 1.1662e+00 9.8035e-01 9.3337e-01 8.2088e-01 7.4740e-01
 1.3475e-01 1.0013e-02 4.1099e-03 3.3766e-03 7.5621e-04 6.5456e-04]
entropy correction =  -0.04386444019850108
cycle= 18 E= -11.7987115920363  delta_E= 0.0146  |g|= 0.137  |ddm|= 0.378
HOMO:  -0.11772027254312165 LUMO:  -0.11763305893988102
Fermi energy:      -0.1177498056
[2.0000e+00 2.0000e+00 2.0000e+00 2.0000e+00 2.0000e+00 2.0000e+00
 1.0693e+00 1.0500e+00 9.9705e-01 9.8833e-01 8.8405e-01 8.5788e-01
 1.3480e-01 9.4632e-03 3.9387e-03 3.6869e-03 7.5410e-04 7.1277e-04]
entropy correction =  -0.044495360750978534
cycle= 19 E= -11.8162116391079  delta_E= -0.0175  |g|= 0.0172  |ddm|= 0.25
HOMO:  -0.11747962550588666 LUMO:  -0.11746050626400945
Fermi energy:      -0.1175155516
[2.0000e+00 2.0000e+00 2.0000e+00 2.0000e+00 2.0000e+00 2.0000e+00
 1.0565e+00 1.0519e+00 9.9641e-01 9.9450e-01 8.8165e-01 8.6489e-01
 1.3545e-01 9.5282e-03 3.8656e-03 3.8100e-03 7.4559e-04 7.3681e-04]
entropy correction =  -0.0445224454621678
cycle= 20 E= -11.8164687114394  delta_E= -0.000257  |g|= 0.00526  |ddm|= 0.0381
HOMO:  -0.11749924291009393 LUMO:  -0.1174870514238783
Fermi energy:      -0.1175422736
[2.0000e+00 2.0000e+00 2.0000e+00 2.0000e+00 2.0000e+00 2.0000e+00
 1.0555e+00 1.0533e+00 9.9570e-01 9.9448e-01 8.8218e-01 8.6476e-01
 1.3540e-01 9.5208e-03 3.8517e-03 3.8204e-03 7.4337e-04 7.3790e-04]
entropy correction =  -0.044521769297688175
cycle= 21 E= -11.8164780533478  delta_E= -9.34e-06  |g|= 0.00423  |ddm|= 0.0174
HOMO:  -0.11749190012207252 LUMO:  -0.11748608391995234
Fermi energy:      -0.1175382858
[2.0000e+00 2.0000e+00 2.0000e+00 2.0000e+00 2.0000e+00 2.0000e+00
 1.0554e+00 1.0538e+00 9.9536e-01 9.9478e-01 8.8277e-01 8.6389e-01
 1.3533e-01 9.5196e-03 3.8437e-03 3.8260e-03 7.4174e-04 7.3876e-04]
entropy correction =  -0.044520004025747954
cycle= 22 E= -11.8164940209025  delta_E= -1.6e-05  |g|= 0.000971  |ddm|= 0.00957
HOMO:  -0.11749986662745465 LUMO:  -0.11749408628155017
Fermi energy:      -0.1175453953
[2.0000e+00 2.0000e+00 2.0000e+00 2.0000e+00 2.0000e+00 2.0000e+00
 1.0548e+00 1.0540e+00 9.9545e-01 9.9487e-01 8.8257e-01 8.6423e-01
 1.3535e-01 9.5147e-03 3.8394e-03 3.8295e-03 7.4108e-04 7.3935e-04]
entropy correction =  -0.0445204589484821
cycle= 23 E= -11.8164948092764  delta_E= -7.88e-07  |g|= 0.000394  |ddm|= 0.00241
HOMO:  -0.11749494694518754 LUMO:  -0.11749330843184745
Fermi energy:      -0.1175425720
[2.0000e+00 2.0000e+00 2.0000e+00 2.0000e+00 2.0000e+00 2.0000e+00
 1.0545e+00 1.0543e+00 9.9524e-01 9.9507e-01 8.8256e-01 8.6421e-01
 1.3535e-01 9.5165e-03 3.8355e-03 3.8342e-03 7.4043e-04 7.4017e-04]
entropy correction =  -0.04452058364671368
cycle= 24 E= -11.8164949477302  delta_E= -1.38e-07  |g|= 0.000131  |ddm|= 0.00116
HOMO:  -0.11749051868424425 LUMO:  -0.11748774468355751
Fermi energy:      -0.1175372354
[2.0000e+00 2.0000e+00 2.0000e+00 2.0000e+00 2.0000e+00 2.0000e+00
 1.0546e+00 1.0543e+00 9.9533e-01 9.9505e-01 8.8249e-01 8.6425e-01
 1.3536e-01 9.5183e-03 3.8370e-03 3.8337e-03 7.4069e-04 7.4019e-04]
entropy correction =  -0.0445208050352519
cycle= 25 E= -11.8164949334174  delta_E= 1.43e-08  |g|= 0.000187  |ddm|= 0.00062
HOMO:  -0.11749310722332323 LUMO:  -0.11749046107188665
Fermi energy:      -0.1175400558
[2.0000e+00 2.0000e+00 2.0000e+00 2.0000e+00 2.0000e+00 2.0000e+00
 1.0546e+00 1.0543e+00 9.9531e-01 9.9504e-01 8.8253e-01 8.6422e-01
 1.3536e-01 9.5172e-03 3.8364e-03 3.8338e-03 7.4058e-04 7.4017e-04]
entropy correction =  -0.044520690798753475
cycle= 26 E= -11.8164949626624  delta_E= -2.92e-08  |g|= 3.67e-05  |ddm|= 0.000382
HOMO:  -0.11749348827028636 LUMO:  -0.11749111237958293
Fermi energy:      -0.1175405823
[2.0000e+00 2.0000e+00 2.0000e+00 2.0000e+00 2.0000e+00 2.0000e+00
 1.0545e+00 1.0543e+00 9.9529e-01 9.9505e-01 8.8253e-01 8.6423e-01
 1.3536e-01 9.5170e-03 3.8360e-03 3.8341e-03 7.4051e-04 7.4020e-04]
entropy correction =  -0.04452066175562279
cycle= 27 E= -11.8164949639894  delta_E= -1.33e-09  |g|= 2.7e-06  |ddm|= 0.000113
HOMO:  -0.11749346497797737 LUMO:  -0.1174910953708151
Fermi energy:      -0.1175405514
[2.0000e+00 2.0000e+00 2.0000e+00 2.0000e+00 2.0000e+00 2.0000e+00
 1.0545e+00 1.0543e+00 9.9529e-01 9.9505e-01 8.8252e-01 8.6423e-01
 1.3536e-01 9.5169e-03 3.8360e-03 3.8341e-03 7.4051e-04 7.4020e-04]
entropy correction =  -0.0445206597120929
cycle= 28 E= -11.8164949639947  delta_E= -5.33e-12  |g|= 1.09e-06  |ddm|= 5.28e-06
HOMO:  -0.11749347439712653 LUMO:  -0.11749108441099244
Fermi energy:      -0.1175405497
[2.0000e+00 2.0000e+00 2.0000e+00 2.0000e+00 2.0000e+00 2.0000e+00
 1.0545e+00 1.0543e+00 9.9529e-01 9.9505e-01 8.8253e-01 8.6422e-01
 1.3536e-01 9.5169e-03 3.8360e-03 3.8340e-03 7.4051e-04 7.4020e-04]
entropy correction =  -0.044520657680422356
Extra cycle  E= -11.816494963715  delta_E= 2.8e-10  |g|= 1.73e-05  |ddm|= 3.78e-05
degenerate subspace detected:
nsub = 35
subspace 1:
2, 3, 
subspace 2:
5, 6, 
subspace 3:
8, 9, 
subspace 4:
11, 12, 13, 
subspace 5:
15, 16, 
subspace 6:
17, 18, 
subspace 7:
21, 22, 
subspace 8:
23, 24, 
subspace 9:
25, 26, 
subspace 10:
27, 28, 
subspace 11:
29, 30, 
subspace 12:
31, 32, 
subspace 13:
36, 37, 
subspace 14:
38, 39, 
subspace 15:
40, 41, 42, 43, 
subspace 16:
45, 46, 
subspace 17:
47, 48, 
subspace 18:
49, 50, 
subspace 19:
51, 52, 
subspace 20:
53, 54, 55, 
subspace 21:
57, 58, 
subspace 22:
59, 60, 
subspace 23:
63, 64, 
subspace 24:
66, 67, 
subspace 25:
68, 69, 
subspace 26:
71, 72, 
subspace 27:
73, 74, 
subspace 28:
75, 76, 
subspace 29:
77, 78, 
subspace 30:
79, 80, 
subspace 31:
81, 82, 
subspace 32:
87, 88, 
subspace 33:
89, 90, 
subspace 34:
92, 93, 
subspace 35:
94, 95, 

 Adding contributions from fluctuation of occupation numbers.
degenerate subspace detected:
nsub = 30
subspace 1:
2, 3, 
subspace 2:
4, 5, 
subspace 3:
7, 8, 9, 10, 
subspace 4:
11, 12, 
subspace 5:
15, 16, 
subspace 6:
17, 18, 
subspace 7:
20, 21, 22, 23, 
subspace 8:
26, 27, 
subspace 9:
31, 32, 
subspace 10:
33, 34, 35, 
subspace 11:
36, 37, 
subspace 12:
39, 40, 41, 42, 
subspace 13:
46, 47, 
subspace 14:
48, 49, 
subspace 15:
51, 52, 
subspace 16:
53, 54, 
subspace 17:
57, 58, 
subspace 18:
59, 60, 
subspace 19:
62, 63, 64, 
subspace 20:
66, 67, 
subspace 21:
68, 69, 
subspace 22:
72, 73, 
subspace 23:
74, 75, 
subspace 24:
77, 78, 
subspace 25:
79, 80, 
subspace 26:
81, 82, 
subspace 27:
86, 87, 
subspace 28:
88, 89, 
subspace 29:
93, 94, 
subspace 30:
95, 96, 

 Adding contributions from fluctuation of occupation numbers.
entropy correction =  -0.044520657680422356
2-norm (grad),       max(grad):
2.0464918900533227 ,  0.1677317641727894
time of hessian construction : 18.590  (cpu),  0.466  (wall) 
time of hessian construction : 23.370  (cpu),  0.586  (wall) 
f =  2.0940645280270105
|umat| =  0.055465682074780774
rks_ao.ne_frozen =  0
Set gradient conv threshold to 3.16228e-05
Initial guess from hcore.
HOMO:  -3.481130781468232 LUMO:  -3.231703204718969
Fermi energy:      -3.3573514846
[2. 2. 2. 2. 2. 2. 2. 2. 2.]
tot grids = 190200
init E= -8.76114477571717
HOMO:  0.04239449933798254 LUMO:  0.053446689544405776
Fermi energy:       0.0471321306
[2.0000e+00 2.0000e+00 2.0000e+00 2.0000e+00 2.0000e+00 2.0000e+00
 1.7914e+00 1.7913e+00 1.4412e+00 4.4095e-01 4.4078e-01 4.6146e-02
 4.0906e-02 3.4573e-03 1.6148e-03 1.6147e-03 1.9088e-04 1.9077e-04
 1.3880e-04]
entropy correction =  -0.025543260916878703
cycle= 1 E= -5.69312152225613  delta_E= 3.07  |g|=  3.2  |ddm|= 11.3
HOMO:  -1.0322540893406802 LUMO:  -0.8119920252119023
Fermi energy:      -0.9214461906
[2. 2. 2. 2. 2. 2. 2. 2. 2.]
entropy correction =  -3.0371918613130204e-10
cycle= 2 E= -9.18127343617417  delta_E= -3.49  |g|= 1.72  |ddm|= 10.9
HOMO:  -0.20607625443003516 LUMO:  -0.17433671658369246
Fermi energy:      -0.1878344642
[...]
 0.6397 0.56   0.2562 0.231 ]
entropy correction =  -0.045622720351176156
cycle= 4 E= -11.9770394290422  delta_E= -0.00938  |g|= 0.255  |ddm|= 0.963
HOMO:  -0.18946704489458152 LUMO:  -0.18824965972303118
Fermi energy:      -0.1906474892
[2.     2.     2.     2.     1.9832 1.9703 1.545  1.0328 0.8825 0.7647
 0.7143 0.5025 0.309  0.2956]
entropy correction =  -0.04770920338313675
cycle= 5 E= -12.0031796760819  delta_E= -0.0261  |g|= 0.143  |ddm|= 0.658
HOMO:  -0.18917288523502787 LUMO:  -0.18665872127135852
Fermi energy:      -0.1898460322
[2.     2.     2.     2.     1.9789 1.9755 1.5662 1.0533 0.9328 0.6916
 0.654  0.5819 0.2993 0.2664]
entropy correction =  -0.047246751879243744
cycle= 6 E= -12.0019051052097  delta_E= 0.00127  |g|= 0.156  |ddm|= 0.634
HOMO:  -0.1865078588249411 LUMO:  -0.1850764274334011
Fermi energy:      -0.1877167932
[2.     2.     2.     2.     1.9838 1.9729 1.6402 1.0585 0.8797 0.7419
 0.6636 0.5065 0.2817 0.271 ]
entropy correction =  -0.046312443587644206
cycle= 7 E= -12.0062195307388  delta_E= -0.00431  |g|= 0.118  |ddm|= 0.513
HOMO:  -0.18585702393418851 LUMO:  -0.18518096786106694
Fermi energy:      -0.1874811068
[2.     2.     2.     2.     1.9817 1.976  1.6422 0.9355 0.839  0.774
 0.7208 0.5356 0.3193 0.2759]
entropy correction =  -0.04700496256964859
cycle= 8 E= -12.0176688320324  delta_E= -0.0114  |g|= 0.0323  |ddm|= 0.427
HOMO:  -0.18651989176097578 LUMO:  -0.1861043020849092
Fermi energy:      -0.1883054113
[2.     2.     2.     2.     1.9791 1.9771 1.6039 0.9341 0.8233 0.7834
 0.7464 0.5472 0.3246 0.2808]
entropy correction =  -0.04752911531007103
cycle= 9 E= -12.0178557268879  delta_E= -0.000187  |g|= 0.0385  |ddm|= 0.139
HOMO:  -0.18642516926884595 LUMO:  -0.18608257755630325
Fermi energy:      -0.1883026455
[2.     2.     2.     2.     1.9786 1.9773 1.6007 0.9375 0.8144 0.7816
 0.7527 0.5476 0.3259 0.2836]
entropy correction =  -0.04759441702944206
cycle= 10 E= -12.0187384969812  delta_E= -0.000883  |g|= 0.0082  |ddm|= 0.0822
HOMO:  -0.18643573899398277 LUMO:  -0.18585991719615427
Fermi energy:      -0.1882060921
[2.     2.     2.     2.     1.9795 1.9768 1.6021 0.9329 0.8248 0.7696
 0.7571 0.5489 0.3252 0.2831]
entropy correction =  -0.04757188955770897
cycle= 11 E= -12.0187018061754  delta_E= 3.67e-05  |g|= 0.00902  |ddm|= 0.0442
HOMO:  -0.186355912631974 LUMO:  -0.18587620975254088
Fermi energy:      -0.1881814108
[2.     2.     2.     2.     1.9792 1.9773 1.603  0.941  0.8195 0.7735
 0.747  0.5513 0.3256 0.2827]
entropy correction =  -0.04755122519140751
cycle= 12 E= -12.0187808743614  delta_E= -7.91e-05  |g|= 0.00355  |ddm|= 0.0399
HOMO:  -0.18645426217399516 LUMO:  -0.18604665026803
Fermi energy:      -0.1883012968
[2.     2.     2.     2.     1.9791 1.9771 1.6018 0.9371 0.8174 0.7783
 0.7515 0.5499 0.3252 0.2826]
entropy correction =  -0.04757137140112661
cycle= 13 E= -12.0187798386806  delta_E= 1.04e-06  |g|= 0.00448  |ddm|= 0.016
HOMO:  -0.18645475516053922 LUMO:  -0.1860015494671571
Fermi energy:      -0.1882834195
[2.     2.     2.     2.     1.9791 1.9772 1.6033 0.9373 0.8191 0.7757
 0.7512 0.5497 0.3252 0.2821]
entropy correction =  -0.04755011414168153
cycle= 14 E= -12.0187928894114  delta_E= -1.31e-05  |g|= 0.000479  |ddm|= 0.0094
HOMO:  -0.18646007691867011 LUMO:  -0.1860170200485841
Fermi energy:      -0.1882917216
[2.     2.     2.     2.     1.9791 1.9771 1.603  0.9369 0.8189 0.7764
 0.7515 0.5497 0.3252 0.2822]
entropy correction =  -0.04755534849387796
cycle= 15 E= -12.0187928906647  delta_E= -1.25e-09  |g|= 0.000567  |ddm|= 0.00242
HOMO:  -0.18646455197932313 LUMO:  -0.18601539606590164
Fermi energy:      -0.1882937112
[2.     2.     2.     2.     1.9791 1.9771 1.6029 0.937  0.8191 0.776
 0.7517 0.5496 0.3252 0.2822]
entropy correction =  -0.04755605124117353
cycle= 16 E= -12.0187930203544  delta_E= -1.3e-07  |g|= 0.000387  |ddm|= 0.00182
HOMO:  -0.1864483618772774 LUMO:  -0.18599736517347634
Fermi energy:      -0.1882781810
[2.     2.     2.     2.     1.9791 1.9772 1.6034 0.9372 0.819  0.7758
 0.7513 0.5497 0.3252 0.282 ]
entropy correction =  -0.047550561423503244
cycle= 17 E= -12.0187930809942  delta_E= -6.06e-08  |g|= 0.000215  |ddm|= 0.00136
HOMO:  -0.18644922420378163 LUMO:  -0.18599931554541949
Fermi energy:      -0.1882790928
[2.     2.     2.     2.     1.9791 1.9772 1.6029 0.9372 0.819  0.7759
 0.7515 0.5498 0.3253 0.2822]
entropy correction =  -0.047556823382441105
cycle= 18 E= -12.0187930758411  delta_E= 5.15e-09  |g|= 0.000248  |ddm|= 0.000784
HOMO:  -0.1864506304973627 LUMO:  -0.18600079069748618
Fermi energy:      -0.1882803092
[2.     2.     2.     2.     1.9791 1.9772 1.603  0.9372 0.819  0.7759
 0.7514 0.5497 0.3253 0.2821]
entropy correction =  -0.04755469329145726
cycle= 19 E= -12.0187931182384  delta_E= -4.24e-08  |g|= 0.000105  |ddm|= 0.000666
HOMO:  -0.18644947997956543 LUMO:  -0.18599644544457464
Fermi energy:      -0.1882775807
[2.     2.     2.     2.     1.9791 1.9771 1.6031 0.9371 0.8192 0.7758
 0.7514 0.5498 0.3253 0.2821]
entropy correction =  -0.04755408130103512
cycle= 20 E= -12.0187931017894  delta_E= 1.64e-08  |g|= 0.00015  |ddm|= 0.000634
HOMO:  -0.18644894585841515 LUMO:  -0.1859988798241454
Fermi energy:      -0.1882784228
[2.     2.     2.     2.     1.9791 1.9772 1.6031 0.9372 0.8191 0.7759
 0.7513 0.5498 0.3253 0.2821]
entropy correction =  -0.04755384438685188
cycle= 21 E= -12.0187931158739  delta_E= -1.41e-08  |g|= 9.59e-05  |ddm|= 0.000712
HOMO:  -0.18645086147648066 LUMO:  -0.18600113012318303
Fermi energy:      -0.1882805418
[2.     2.     2.     2.     1.9791 1.9772 1.6031 0.9371 0.819  0.7759
 0.7514 0.5497 0.3253 0.2821]
entropy correction =  -0.04755429203959399
cycle= 22 E= -12.0187931256219  delta_E= -9.75e-09  |g|= 2.3e-05  |ddm|= 0.000332
HOMO:  -0.18645124495883145 LUMO:  -0.1860008800835413
Fermi energy:      -0.1882806155
[2.     2.     2.     2.     1.9791 1.9772 1.6031 0.9371 0.8191 0.7759
 0.7514 0.5497 0.3253 0.2821]
entropy correction =  -0.04755381507948288
cycle= 23 E= -12.0187931237077  delta_E= 1.91e-09  |g|= 5.72e-05  |ddm|= 0.000155
HOMO:  -0.18645136139825783 LUMO:  -0.18600158530007108
Fermi energy:      -0.1882809524
[2.     2.     2.     2.     1.9791 1.9772 1.6031 0.9371 0.8191 0.7759
 0.7514 0.5497 0.3253 0.2821]
entropy correction =  -0.047554324598058535
cycle= 24 E= -12.0187931255777  delta_E= -1.87e-09  |g|= 2.2e-05  |ddm|= 0.000149
HOMO:  -0.1864514357696626 LUMO:  -0.18600133179848863
Fermi energy:      -0.1882809137
[2.     2.     2.     2.     1.9791 1.9772 1.6031 0.9371 0.8191 0.7759
 0.7514 0.5497 0.3253 0.2821]
entropy correction =  -0.04755431469698358
cycle= 25 E= -12.0187931254188  delta_E= 1.59e-10  |g|= 2.85e-05  |ddm|= 9.9e-05
HOMO:  -0.1864493027408438 LUMO:  -0.18600187916138566
Fermi energy:      -0.1882798999
[2.     2.     2.     2.     1.9791 1.9772 1.6031 0.9371 0.819  0.7761
 0.7514 0.5498 0.3253 0.2821]
entropy correction =  -0.04755423716106939
Extra cycle  E= -12.018793052813  delta_E= 7.26e-08  |g|= 0.000331  |ddm|= 0.000721
entropy correction =  -0.04755423716106939
rks_ao.ne_frozen =  0
Set gradient conv threshold to 3.16228e-05
tot grids = 190200
init E= -10.1555155450738
HOMO:  -0.07514077890278484 LUMO:  -0.07332790326764964
Fermi energy:      -0.0778193355
[2.     2.     2.     2.     2.     2.     1.9761 0.8231 0.7384 0.5788
 0.4598 0.4396 0.4335 0.19   0.1677 0.104  0.0849 0.004 ]
entropy correction =  -0.04587456389641356
cycle= 1 E= -12.1458529600756  delta_E= -1.99  |g|= 0.188  |ddm|=  4.8
HOMO:  -0.13771813762066348 LUMO:  -0.13678765475839758
Fermi energy:      -0.1400635718
[2.0000e+00 2.0000e+00 2.0000e+00 2.0000e+00 2.0000e+00 2.0000e+00
 1.9813e+00 9.1295e-01 7.6966e-01 6.8364e-01 5.9261e-01 3.2090e-01
 2.5180e-01 1.6642e-01 1.3933e-01 1.2175e-01 5.9268e-02 3.5376e-04]
entropy correction =  -0.043814718873379135
cycle= 2 E= -12.12954425708  delta_E= 0.0163  |g|= 0.194  |ddm|= 0.835
HOMO:  -0.13859076148409355 LUMO:  -0.138182286126094
Fermi energy:      -0.1401736996
[2.0000e+00 2.0000e+00 2.0000e+00 2.0000e+00 2.0000e+00 2.0000e+00
 1.9804e+00 1.0779e+00 8.4302e-01 8.0345e-01 5.3550e-01 3.1845e-01
 1.9730e-01 1.3996e-01 5.5035e-02 3.1881e-02 1.6904e-02 2.0681e-04]
entropy correction =  -0.03952353605673533
cycle= 3 E= -11.9628278866384  delta_E= 0.167  |g|= 0.487  |ddm|= 1.23
HOMO:  -0.1360279868160515 LUMO:  -0.13336688265334584
Fermi energy:      -0.1370792003
[2.0000e+00 2.0000e+00 2.0000e+00 2.0000e+00 2.0000e+00 2.0000e+00
 1.9825e+00 1.0299e+00 8.9526e-01 6.4493e-01 4.3951e-01 3.6528e-01
 2.7471e-01 1.8707e-01 8.3833e-02 5.3971e-02 4.2660e-02 3.6287e-04]
entropy correction =  -0.04175050896432771
cycle= 4 E= -12.0579884134503  delta_E= -0.0952  |g|= 0.344  |ddm|= 1.18
HOMO:  -0.13198664132634647 LUMO:  -0.13117763088075873
Fermi energy:      -0.1347981727
[2.0000e+00 2.0000e+00 2.0000e+00 2.0000e+00 2.0000e+00 2.0000e+00
 1.9837e+00 8.3723e-01 7.2603e-01 6.5298e-01 6.1998e-01 3.3511e-01
 3.1679e-01 2.4082e-01 1.1132e-01 9.5032e-02 8.0503e-02 4.7744e-04]
entropy correction =  -0.04466698251633679
cycle= 5 E= -12.1423372969976  delta_E= -0.0843  |g|= 0.153  |ddm|= 0.794
HOMO:  -0.13053215765921497 LUMO:  -0.13015793984322482
Fermi energy:      -0.1335263840
[2.0000e+00 2.0000e+00 2.0000e+00 2.0000e+00 2.0000e+00 2.0000e+00
 1.9840e+00 8.3189e-01 7.0922e-01 6.7534e-01 5.9827e-01 3.4416e-01
 2.7711e-01 2.4979e-01 1.2548e-01 1.0653e-01 9.7735e-02 5.0622e-04]
entropy correction =  -0.045035625969475114
cycle= 6 E= -12.1551234591654  delta_E= -0.0128  |g|= 0.0899  |ddm|= 0.415
HOMO:  -0.12762283049741058 LUMO:  -0.1265236640118944
Fermi energy:      -0.1304052209
[2.0000e+00 2.0000e+00 2.0000e+00 2.0000e+00 2.0000e+00 2.0000e+00
 1.9832e+00 8.2013e-01 7.2873e-01 6.3023e-01 5.8271e-01 3.6013e-01
 3.3561e-01 2.5071e-01 1.2420e-01 1.0993e-01 7.3853e-02 5.2834e-04]
entropy correction =  -0.04515184800124754
cycle= 7 E= -12.1558616977377  delta_E= -0.000738  |g|= 0.0837  |ddm|= 0.295
HOMO:  -0.1268836229088312 LUMO:  -0.1260524655896074
Fermi energy:      -0.1300925923
[2.0000e+00 2.0000e+00 2.0000e+00 2.0000e+00 2.0000e+00 2.0000e+00
 1.9835e+00 8.2215e-01 6.8968e-01 6.1662e-01 6.1230e-01 3.4837e-01
 3.3741e-01 2.6367e-01 1.1915e-01 1.0507e-01 1.0147e-01 5.4723e-04]
entropy correction =  -0.04543999317119241
cycle= 8 E= -12.1614818711776  delta_E= -0.00562  |g|= 0.0255  |ddm|= 0.226
HOMO:  -0.12731556400775312 LUMO:  -0.1266317435975113
Fermi energy:      -0.1304989644
[2.0000e+00 2.0000e+00 2.0000e+00 2.0000e+00 2.0000e+00 2.0000e+00
 1.9836e+00 8.1652e-01 6.9199e-01 6.3147e-01 6.1048e-01 3.4994e-01
 3.1738e-01 2.6458e-01 1.1951e-01 1.1402e-01 9.9973e-02 5.4361e-04]
entropy correction =  -0.045455050530930595
cycle= 9 E= -12.1615706522071  delta_E= -8.88e-05  |g|= 0.023  |ddm|= 0.0934
HOMO:  -0.12731893489860316 LUMO:  -0.1266961158669493
Fermi energy:      -0.1305707086
[2.0000e+00 2.0000e+00 2.0000e+00 2.0000e+00 2.0000e+00 2.0000e+00
 1.9835e+00 8.1667e-01 6.8582e-01 6.3083e-01 6.1330e-01 3.5349e-01
 3.2009e-01 2.6298e-01 1.1614e-01 1.1336e-01 1.0331e-01 5.4313e-04]
entropy correction =  -0.045474946544412455
cycle= 10 E= -12.1619880765949  delta_E= -0.000417  |g|= 0.00763  |ddm|= 0.0699
HOMO:  -0.12740656871657904 LUMO:  -0.12671804365589434
Fermi energy:      -0.1306292706
[2.0000e+00 2.0000e+00 2.0000e+00 2.0000e+00 2.0000e+00 2.0000e+00
 1.9835e+00 8.1756e-01 6.8844e-01 6.2767e-01 6.1453e-01 3.5077e-01
 3.2009e-01 2.6378e-01 1.1541e-01 1.1363e-01 1.0409e-01 5.4174e-04]
entropy correction =  -0.045468632082085306
cycle= 11 E= -12.1620367401965  delta_E= -4.87e-05  |g|= 0.00194  |ddm|= 0.0197
HOMO:  -0.12742798660549687 LUMO:  -0.12674967343861265
Fermi energy:      -0.1306544245
[2.0000e+00 2.0000e+00 2.0000e+00 2.0000e+00 2.0000e+00 2.0000e+00
 1.9835e+00 8.1760e-01 6.8810e-01 6.2823e-01 6.1400e-01 3.5128e-01
 3.1980e-01 2.6371e-01 1.1543e-01 1.1385e-01 1.0396e-01 5.4128e-04]
entropy correction =  -0.045470428676771625
cycle= 12 E= -12.1620395475536  delta_E= -2.81e-06  |g|= 0.000663  |ddm|= 0.00393
HOMO:  -0.12742118228528257 LUMO:  -0.1267404988164461
Fermi energy:      -0.1306508964
[2.0000e+00 2.0000e+00 2.0000e+00 2.0000e+00 2.0000e+00 2.0000e+00
 1.9835e+00 8.1749e-01 6.8781e-01 6.2774e-01 6.1438e-01 3.5138e-01
 3.2045e-01 2.6368e-01 1.1563e-01 1.1367e-01 1.0376e-01 5.4133e-04]
entropy correction =  -0.04547202638868219
cycle= 13 E= -12.1620398156251  delta_E= -2.68e-07  |g|= 0.000364  |ddm|= 0.00204
HOMO:  -0.1274175557963348 LUMO:  -0.12673413218965277
Fermi energy:      -0.1306452929
[2.0000e+00 2.0000e+00 2.0000e+00 2.0000e+00 2.0000e+00 2.0000e+00
 1.9835e+00 8.1754e-01 6.8799e-01 6.2768e-01 6.1428e-01 3.5130e-01
 3.2031e-01 2.6373e-01 1.1557e-01 1.1375e-01 1.0385e-01 5.4134e-04]
entropy correction =  -0.045472338353387175
cycle= 14 E= -12.1620399238908  delta_E= -1.08e-07  |g|= 7.8e-05  |ddm|= 0.000788
HOMO:  -0.12741406204708403 LUMO:  -0.1267309758603254
Fermi energy:      -0.1306418861
[2.0000e+00 2.0000e+00 2.0000e+00 2.0000e+00 2.0000e+00 2.0000e+00
 1.9835e+00 8.1764e-01 6.8798e-01 6.2770e-01 6.1414e-01 3.5138e-01
 3.2025e-01 2.6372e-01 1.1558e-01 1.1372e-01 1.0387e-01 5.4135e-04]
entropy correction =  -0.045472352870643475
cycle= 15 E= -12.1620399113429  delta_E= 1.25e-08  |g|= 0.000145  |ddm|= 0.000486
HOMO:  -0.12741655470294258 LUMO:  -0.12673330262572266
Fermi energy:      -0.1306443359
[2.0000e+00 2.0000e+00 2.0000e+00 2.0000e+00 2.0000e+00 2.0000e+00
 1.9835e+00 8.1759e-01 6.8798e-01 6.2769e-01 6.1421e-01 3.5135e-01
 3.2028e-01 2.6371e-01 1.1558e-01 1.1374e-01 1.0385e-01 5.4134e-04]
entropy correction =  -0.04547231504509342
cycle= 16 E= -12.1620399291699  delta_E= -1.78e-08  |g|= 2.11e-05  |ddm|= 0.000305
HOMO:  -0.12741665359636534 LUMO:  -0.1267333947668166
Fermi energy:      -0.1306444135
[2.0000e+00 2.0000e+00 2.0000e+00 2.0000e+00 2.0000e+00 2.0000e+00
 1.9835e+00 8.1759e-01 6.8799e-01 6.2769e-01 6.1421e-01 3.5135e-01
 3.2028e-01 2.6371e-01 1.1558e-01 1.1374e-01 1.0385e-01 5.4134e-04]
entropy correction =  -0.0454723109753731
cycle= 17 E= -12.1620399295219  delta_E= -3.52e-10  |g|= 4.6e-06  |ddm|= 4.12e-05
HOMO:  -0.12741656726143344 LUMO:  -0.12673320327563853
Fermi energy:      -0.1306441674
[2.0000e+00 2.0000e+00 2.0000e+00 2.0000e+00 2.0000e+00 2.0000e+00
 1.9835e+00 8.1760e-01 6.8800e-01 6.2769e-01 6.1419e-01 3.5135e-01
 3.2026e-01 2.6372e-01 1.1557e-01 1.1375e-01 1.0386e-01 5.4134e-04]
entropy correction =  -0.045472326956793506
Extra cycle  E= -12.1620399267335  delta_E= 2.79e-09  |g|= 5.79e-05  |ddm|= 0.00011
entropy correction =  -0.045472326956793506
scf energies:
EA (no vemb contrib.) =  -35.15373326950146
EB (no vemb contrib.) =  -25.531392790775065
W =  -60.393790891807065
P_imp change (scf - non-scf):  1.7935486145620436
P_bath change (scf - non-scf):  1.7727866023545193
|P_frag + P_env - P_ref| =  1.2094876528589662
max element of (P_frag + P_env - P_ref) =  0.07362158766188409
mo orthogonality:
[[ 2.8688e-03  2.5745e-03  3.9242e-01 -3.1092e-03  9.3147e-04 -1.6918e-02
   1.3889e-04  1.4913e-04  1.1332e-03  3.0966e-04 -2.7477e-03  2.3178e-04
   9.2128e-03  1.6878e-01 -1.2778e-02  1.1931e-03  1.0726e-03 -6.2702e-01
   7.2991e-05  2.3728e-04 -2.6977e-04  1.0984e-03 -8.4193e-05 -2.2561e-04]
 [-1.0358e-01  1.5519e-01 -3.4564e-04  3.4627e-03  1.2041e-03 -1.3647e-04
   1.3271e-02 -2.9998e-01 -1.8772e-01  1.7485e-02 -5.2767e-02  4.3412e-01
   3.5506e-01 -1.8389e-02 -5.4850e-02 -4.8502e-01  1.9475e-01  9.7087e-04
  -2.9778e-04 -1.1243e-02 -2.4023e-03  2.3076e-03 -6.8978e-02  6.1815e-02]
 [ 1.5954e-01  9.9013e-02 -1.9124e-03  3.3904e-03  1.4579e-03 -3.1234e-04
   1.4152e-02 -2.2436e-01  3.0148e-01  9.9402e-03  1.2749e-02  3.7375e-01
   3.4528e-01 -1.3284e-02  2.9152e-02  5.2532e-01 -2.0900e-01  1.6186e-03
  -1.0804e-04 -5.3840e-03  3.2160e-04 -3.5872e-04  2.6671e-02  7.8714e-02]
 [ 1.6315e-03 -1.0787e-03  1.4175e-04 -8.7095e-02 -5.2800e-04 -4.7260e-04
  -1.2311e-03  5.6206e-02 -2.8514e-03 -1.4510e-02  1.3378e-03  3.7960e-01
  -4.1051e-01  1.7964e-02  1.5933e-03  1.7841e-02 -8.2222e-03 -1.2357e-03
  -5.6600e-02 -4.1722e-01 -2.2944e-02  6.2982e-03  4.8409e-03 -1.9592e-02]
 [ 1.1102e-03 -3.8329e-04 -3.3834e-05 -4.5362e-04 -1.0907e-02  1.2499e-02
   9.8997e-03 -4.7925e-03 -1.2661e-02  6.1370e-02  9.7849e-02 -1.1469e-02
  -1.4511e-02 -1.9830e-02 -6.0756e-01  2.4417e-01  4.8488e-01  7.4391e-03
  -1.6384e-02  3.3626e-03 -5.1346e-02 -1.3021e-01 -2.4426e-03  2.2651e-03]
 [ 1.1208e-03  5.1920e-04  1.9052e-03 -4.8526e-04  1.5199e-02  1.1246e-02
   8.0984e-03  3.7357e-03 -7.1073e-03 -8.1574e-02  6.2313e-02 -9.5854e-03
  -1.3039e-03 -1.5145e-02 -5.3907e-01 -1.9002e-01 -5.8207e-01  4.4406e-03
   1.3958e-02 -1.5196e-02  1.3740e-01 -5.1184e-02 -2.0082e-03  1.4115e-03]
 [-1.7550e-05  5.2829e-05 -4.6988e-02  8.4003e-04 -8.8682e-04  3.0093e-03
  -7.0761e-04 -2.5570e-03 -3.2571e-03 -8.1033e-04 -5.4896e-03 -4.3811e-04
  -3.0679e-02 -6.8838e-01  2.1813e-02  2.3268e-03 -2.8786e-03 -1.5455e-01
  -3.7237e-04 -7.9198e-04 -5.4084e-05 -2.9216e-03 -3.1020e-04 -4.2542e-04]
 [-5.4945e-02 -1.4640e-02 -1.3993e-03 -2.2932e-03  5.2446e-03 -4.2064e-02
   1.6660e-02 -1.9988e-01  5.9280e-01  1.6319e-02  1.8441e-01 -4.5726e-02
  -7.3727e-02  1.5087e-04  1.3935e-03 -1.3148e-01  4.5930e-02 -1.4687e-03
   3.0335e-04  1.9887e-03 -3.6147e-03  1.5063e-02 -1.3838e-01 -1.1916e-01]
 [-1.7300e-02  4.6843e-02 -4.8972e-04  5.2501e-03 -1.7953e-02  5.7405e-02
  -1.2313e-02  5.9732e-01  2.3105e-01 -7.1395e-02 -1.2467e-01  6.7399e-02
   1.3303e-01 -1.0605e-02 -1.9584e-02 -5.2782e-02  3.7295e-02  1.5951e-03
   9.7410e-04 -3.6071e-03 -2.0536e-03 -1.7369e-02 -1.2153e-01  1.3157e-01]
 [ 5.3785e-03  1.2371e-02  2.9068e-03 -3.8975e-03 -3.4818e-02 -2.6635e-01
   5.0691e-03  9.1883e-02 -1.3759e-01 -1.6155e-01  8.0044e-01  1.7518e-02
   6.7287e-02 -8.6077e-04  7.7183e-02 -2.6202e-03  1.5724e-03 -8.8868e-03
   2.7931e-03 -1.2797e-03 -3.7572e-02  8.7359e-02 -3.2632e-03  4.5159e-02]
 [ 6.3063e-04 -5.9759e-03 -1.7065e-03  2.4659e-03 -2.7347e-01  2.9833e-02
   1.9010e-02 -9.3213e-02  1.7396e-02 -8.3030e-01 -1.4249e-01 -1.9366e-02
  -3.8219e-03 -1.7942e-04 -9.5949e-03  2.4703e-02  6.3304e-02  1.3137e-03
  -1.6663e-02  7.6682e-03 -7.6395e-02 -3.6104e-02  5.3921e-03 -1.6056e-02]
 [-1.3638e-03  3.2257e-03  7.4911e-03 -1.7649e-01 -3.5171e-04  1.0062e-02
   3.4078e-04 -4.8460e-02  6.5375e-03  1.8047e-02 -3.6217e-02 -3.7403e-01
   3.8149e-01 -1.5820e-02 -2.4230e-03 -9.4777e-03  5.1787e-03 -1.0810e-04
  -1.1404e-02 -8.3668e-02 -4.0421e-03 -1.8450e-03  2.7035e-03 -7.8349e-03]
 [-5.9793e-03 -5.0799e-03 -6.6834e-01  2.2023e-03 -2.7395e-05  2.0221e-02
   2.8043e-02 -5.0300e-04 -4.9821e-03  2.1305e-03  2.0111e-02 -4.7586e-03
   1.1450e-03 -9.9157e-02  4.0603e-03 -1.6451e-04 -2.9434e-03  3.5274e-02
  -4.7563e-05 -1.3904e-03  5.5055e-04  4.3342e-04  5.3713e-04  1.1281e-03]
 [-2.7362e-03  1.0864e-02 -2.0399e-02  5.9972e-04 -1.4286e-03 -5.1181e-03
  -9.1771e-01 -2.2576e-02  9.5706e-03 -1.7330e-02  6.4453e-03  6.0844e-03
   5.6888e-03 -3.2653e-03 -1.3057e-02  1.5096e-03  5.2504e-04  1.2197e-03
  -8.4630e-04  3.3651e-04 -1.5753e-03  3.0539e-04 -4.8597e-04 -6.2305e-03]
 [ 6.4645e-01 -1.8732e-01 -3.9594e-03 -4.8665e-03  1.2199e-03  2.4061e-03
  -3.5935e-03 -5.6271e-02 -2.2506e-01  4.0775e-03 -2.9094e-02 -2.7632e-03
  -4.3884e-03  1.7051e-03  3.9625e-03  3.1773e-02 -1.4948e-02  4.2712e-04
   1.4797e-03 -1.1221e-03 -2.4451e-03  4.9565e-03 -2.6578e-01 -4.5665e-02]
 [ 1.8904e-01  6.3644e-01 -5.9552e-03  2.1082e-02  1.1953e-03  4.9785e-05
   5.3345e-03  2.3072e-01 -5.0349e-02 -1.1321e-02  1.0614e-02  2.5894e-02
   5.6132e-02 -2.2395e-03  1.3916e-03  2.3011e-03  3.7490e-03  4.1324e-04
  -5.7602e-03  1.4654e-02  2.4614e-03 -5.3318e-03  4.5325e-02 -2.7681e-01]]
|P_imp-P_imp_0| =  1.7935486145620436
max(P_imp-P_imp_0) =  0.19402283136470871
|P_bath-P_bath_0| =  1.7727866023545193
max(P_bath-P_bath_0) =  0.11735752984652473
 Subspace minimization time 0.000E+00 seconds.
 Line search           time 0.000E+00 seconds.

 Total User time 0.000E+00 seconds.

