#INFO: **** input file is /tigress/xingz/pydmfet/examples/research/Al12/dmfet/Al12.py ****
from pydmfet import locints, sdmfet, oep, tools, dfet_ao, proj_ao
from pydmfet.dfet_ao import dfet
from pydmfet.qcwrap.pyscf_rks_ao import rks_ao
from pyscf import gto, scf,dft, ao2mo,cc
import numpy as np
from pyscf.tools import molden, cubegen
import copy,time
from pydmfet.tools.sym import h_lattice_sym_tab

bas = 'stuttgartdz'
ecp = 'stuttgartdz'
temp = 0.005


mol = gto.Mole()
mol.atom = open('Al12.xyz').read()
mol.basis = bas
mol.ecp = ecp
mol.build(max_memory = 4000, verbose=4)

mf = rks_ao(mol,smear_sigma = temp)
mf.xc = 'pbe,pbe'
mf.max_cycle = 50
mf.scf(dm0=None)

natoms = mol.natm
impAtom = np.zeros([natoms], dtype=int)
for i in range(6):
    impAtom[i] = 1

ghost_frag = 1-impAtom
ghost_env = 1-ghost_frag

mol_frag = gto.Mole()
mol_frag.atom = tools.add_ghost(mol.atom, ghost_frag)
mol_frag.basis = bas
mol_frag.ecp = ecp
mol_frag.build(max_memory = 4000,verbose = 4)

mol_env = gto.Mole()
mol_env.atom = tools.add_ghost(mol.atom, ghost_env)
mol_env.basis =  bas
mol_env.ecp = ecp
mol_env.build(max_memory = 4000,verbose = 4)

Ne_frag = 18
Ne_env = 18

boundary_atoms = None
boundary_atoms2 =None

umat = None
umat = np.load("umat.npy")

params = oep.OEPparams(algorithm = 'leastsq', opt_method = 'L-BFGS-B', diffP_tol=1e-4, outer_maxit = 10)
params.options['ftol'] = 1e-9
params.options['gtol'] = 1e-3
params.options['maxiter'] = 10
params.options['svd_thresh'] = 1e-4

theDMFET = dfet.DFET(mf, mol_frag, mol_env,Ne_frag,Ne_env,\
                     boundary_atoms=boundary_atoms, boundary_atoms2=boundary_atoms2,umat = umat,\
                     oep_params=params, smear_sigma=temp, ecw_method = 'hf',mf_method = mf.xc, plot_dens=True)

umat = theDMFET.embedding_potential()
#INFO: ******************** input file end ********************


System: uname_result(system='Linux', node='tigercpu.princeton.edu', release='3.10.0-957.27.2.el7.x86_64', version='#1 SMP Tue Jul 30 11:12:20 EDT 2019', machine='x86_64', processor='x86_64')  Threads 40
Python 3.7.0 (default, Jun 28 2018, 13:15:42) 
[GCC 7.2.0]
numpy 1.16.4  scipy 1.4.0.dev0+0f78e0f
Date: Thu Aug 15 21:31:30 2019
PySCF version 1.5
PySCF path  /home/xingz/.local/lib/python3.7/site-packages/pyscf

[CONFIG] conf_file None
[INPUT] verbose = 4
[INPUT] num. atoms = 12
[INPUT] num. electrons = 36
[INPUT] charge = 0
[INPUT] spin (= nelec alpha-beta = 2S) = 0
[INPUT] symmetry False subgroup None
[INPUT] Mole.unit = angstrom
[INPUT]  1 Al     8.092960000000   4.046480000000  -0.000000000000 AA   15.293477937060   7.646738968530  -0.000000000000 Bohr
[INPUT]  2 Al     8.092960000000   6.069720000000  -2.023240000000 AA   15.293477937060  11.470108452795  -3.823369484265 Bohr
[INPUT]  3 Al    10.116200000000   4.046480000000  -2.023240000000 AA   19.116847421325   7.646738968530  -3.823369484265 Bohr
[INPUT]  4 Al     6.069720000000   4.046480000000  -2.023240000000 AA   11.470108452795   7.646738968530  -3.823369484265 Bohr
[INPUT]  5 Al     8.092960000000   2.023240000000  -2.023240000000 AA   15.293477937060   3.823369484265  -3.823369484265 Bohr
[INPUT]  6 Al     8.092960000000   4.046480000000  -4.046480000000 AA   15.293477937060   7.646738968530  -7.646738968530 Bohr
[INPUT]  7 Al     6.069720000000   6.069720000000  -0.000000000000 AA   11.470108452795  11.470108452795  -0.000000000000 Bohr
[INPUT]  8 Al    10.116200000000   2.023240000000  -0.000000000000 AA   19.116847421325   3.823369484265  -0.000000000000 Bohr
[INPUT]  9 Al    10.116200000000   6.069720000000  -4.046480000000 AA   19.116847421325  11.470108452795  -7.646738968530 Bohr
[INPUT] 10 Al     6.069720000000   2.023240000000  -0.000000000000 AA   11.470108452795   3.823369484265  -0.000000000000 Bohr
[INPUT] 11 Al     6.069720000000   6.069720000000  -4.046480000000 AA   11.470108452795  11.470108452795  -7.646738968530 Bohr
[INPUT] 12 Al    10.116200000000   2.023240000000  -4.046480000000 AA   19.116847421325   3.823369484265  -7.646738968530 Bohr

nuclear repulsion = 84.8573926838199
number of shells = 48
number of NR pGTOs = 192
number of NR cGTOs = 96
basis = stuttgartdz
ecp = stuttgartdz
CPU time:         4.74
rks_ao.ne_frozen =  0


******** <class 'pydmfet.qcwrap.pyscf_rks_ao.rks_ao'> flags ********
method = rks_ao-RKS-RHF
initial guess = minao
damping factor = 0
level shift factor = 0
DIIS = <class 'pyscf.scf.diis.CDIIS'>
DIIS start cycle = 1
DIIS space = 8
SCF tol = 1e-09
SCF gradient tol = None
max. SCF cycles = 50
direct_scf = False
chkfile to save SCF result = /tigress/xingz/pydmfet/examples/research/Al12/dmfet/tmpd6i2ze8y
max_memory 4000 MB (current use 73 MB)
XC functionals = pbe,pbe
small_rho_cutoff = 1e-07
radial grids: 
    Treutler-Ahlrichs (JCP 102, 346 (M4)) radial grids
    
becke partition: Becke, JCP, 88, 2547 (1988)
pruning grids: <function nwchem_prune at 0x2abe4ab28400>
grids dens level: 3
symmetrized grids: False
atomic radii adjust function: <function treutler_atomic_radii_adjust at 0x2abe4ab28378>
Set gradient conv threshold to 3.16228e-05
tot grids = 220800
init E= -21.344783658299
HOMO:  -0.09640875247665426 LUMO:  -0.08910626015728036
Fermi energy:      -0.0887572500
[2.     2.     2.     2.     2.     2.     2.     2.     2.     2.
 2.     2.     1.9995 1.9096 1.7557 1.7557 1.6441 1.6441 1.0349 0.2163
 0.02   0.02  ]
entropy correction =  -0.030126402950195977
cycle= 1 E= -24.0317931641734  delta_E= -2.69  |g|= 0.653  |ddm|= 6.67
HOMO:  -0.23116268121406397 LUMO:  -0.2311626812140617
Fermi energy:      -0.2358858179
[2.     2.     2.     2.     2.     2.     2.     2.     2.     2.
 2.     2.     2.     1.9989 1.9981 1.9981 1.9963 0.5599 0.5599 0.4393
 0.4393 0.0101]
entropy correction =  -0.023039335110061874
cycle= 2 E= -22.7589412406568  delta_E= 1.27  |g|= 1.61  |ddm|= 4.31
HOMO:  -0.18647942894363206 LUMO:  -0.1755152171500877
Fermi energy:      -0.1766937420
[2.     2.     2.     2.     2.     2.     2.     2.     2.     2.
 2.     2.     1.9995 1.9702 1.7766 1.7766 1.7524 1.7524 0.8827 0.0807
 0.0044 0.0044]
entropy correction =  -0.02415297942638066
cycle= 3 E= -24.1577819172462  delta_E= -1.4  |g|= 0.177  |ddm|= 3.48
HOMO:  -0.16723309364643518 LUMO:  -0.16668219584287286
Fermi energy:      -0.1626445453
[2.     2.     2.     2.     2.     2.     2.     2.     2.     2.
 2.     2.     1.9999 1.922  1.8341 1.8341 1.4292 1.4292 1.3832 0.1196
 0.0244 0.0244]
entropy correction =  -0.029092393079057196
cycle= 4 E= -24.1758252844609  delta_E= -0.018  |g|= 0.0887  |ddm|= 0.83
HOMO:  -0.16913270192186297 LUMO:  -0.16476599946426146
Fermi energy:      -0.1627185946
[2.     2.     2.     2.     2.     2.     2.     2.     2.     2.
 2.     2.     1.9998 1.9364 1.7964 1.7964 1.5659 1.5659 1.2019 0.1144
 0.0115 0.0115]
entropy correction =  -0.028086981458188453
cycle= 5 E= -24.1831548067301  delta_E= -0.00733  |g|= 0.00917  |ddm|= 0.293
HOMO:  -0.17049749264549782 LUMO:  -0.16611814497689378
Fermi energy:      -0.1641279001
[2.     2.     2.     2.     2.     2.     2.     2.     2.     2.
 2.     2.     1.9999 1.9389 1.802  1.802  1.5628 1.5628 1.1964 0.1103
 0.0124 0.0124]
entropy correction =  -0.027959636151646698
cycle= 6 E= -24.1832343125342  delta_E= -7.95e-05  |g|= 0.00113  |ddm|= 0.0422
HOMO:  -0.17058528293729217 LUMO:  -0.16630331880958027
Fermi energy:      -0.1642599608
[2.     2.     2.     2.     2.     2.     2.     2.     2.     2.
 2.     2.     1.9999 1.9387 1.8025 1.8025 1.5598 1.5598 1.2015 0.1105
 0.0124 0.0124]
entropy correction =  -0.02798324295234854
cycle= 7 E= -24.1832355473262  delta_E= -1.23e-06  |g|= 0.000895  |ddm|= 0.00747
HOMO:  -0.1705473183302207 LUMO:  -0.16621690815491344
Fermi energy:      -0.1641961314
[2.     2.     2.     2.     2.     2.     2.     2.     2.     2.
 2.     2.     1.9999 1.9385 1.8018 1.8018 1.5616 1.5616 1.1994 0.1109
 0.0124 0.0124]
entropy correction =  -0.027989021488971626
cycle= 8 E= -24.1832361966829  delta_E= -6.49e-07  |g|= 7.71e-05  |ddm|= 0.00356
HOMO:  -0.17053508515532714 LUMO:  -0.16621147282032384
Fermi energy:      -0.1641878969
[2.     2.     2.     2.     2.     2.     2.     2.     2.     2.
 2.     2.     1.9999 1.9385 1.8019 1.8019 1.5613 1.5613 1.1996 0.1108
 0.0124 0.0124]
entropy correction =  -0.027988389387862217
cycle= 9 E= -24.1832362061519  delta_E= -9.47e-09  |g|= 2.11e-05  |ddm|= 0.000544
HOMO:  -0.17053203701352987 LUMO:  -0.16620777273045229
Fermi energy:      -0.1641845192
[2.     2.     2.     2.     2.     2.     2.     2.     2.     2.
 2.     2.     1.9999 1.9385 1.8019 1.8019 1.5613 1.5613 1.1996 0.1108
 0.0124 0.0124]
entropy correction =  -0.027988113609437294
cycle= 10 E= -24.1832362064485  delta_E= -2.97e-10  |g|= 3.03e-06  |ddm|= 6.6e-05
HOMO:  -0.17053311710040953 LUMO:  -0.16620885001249924
Fermi energy:      -0.1641855888
[2.     2.     2.     2.     2.     2.     2.     2.     2.     2.
 2.     2.     1.9999 1.9385 1.8019 1.8019 1.5613 1.5613 1.1996 0.1108
 0.0124 0.0124]
entropy correction =  -0.027988123737000496
Extra cycle  E= -24.1832362064465  delta_E= 2e-12  |g|= 3.71e-06  |ddm|= 1.75e-05
converged SCF energy = -24.1832362064465
#INFO: **** input file is /tigress/xingz/pydmfet/examples/research/Al12/dmfet/Al12.py ****
from pydmfet import locints, sdmfet, oep, tools, dfet_ao, proj_ao
from pydmfet.dfet_ao import dfet
from pydmfet.qcwrap.pyscf_rks_ao import rks_ao
from pyscf import gto, scf,dft, ao2mo,cc
import numpy as np
from pyscf.tools import molden, cubegen
import copy,time
from pydmfet.tools.sym import h_lattice_sym_tab

bas = 'stuttgartdz'
ecp = 'stuttgartdz'
temp = 0.005


mol = gto.Mole()
mol.atom = open('Al12.xyz').read()
mol.basis = bas
mol.ecp = ecp
mol.build(max_memory = 4000, verbose=4)

mf = rks_ao(mol,smear_sigma = temp)
mf.xc = 'pbe,pbe'
mf.max_cycle = 50
mf.scf(dm0=None)

natoms = mol.natm
impAtom = np.zeros([natoms], dtype=int)
for i in range(6):
    impAtom[i] = 1

ghost_frag = 1-impAtom
ghost_env = 1-ghost_frag

mol_frag = gto.Mole()
mol_frag.atom = tools.add_ghost(mol.atom, ghost_frag)
mol_frag.basis = bas
mol_frag.ecp = ecp
mol_frag.build(max_memory = 4000,verbose = 4)

mol_env = gto.Mole()
mol_env.atom = tools.add_ghost(mol.atom, ghost_env)
mol_env.basis =  bas
mol_env.ecp = ecp
mol_env.build(max_memory = 4000,verbose = 4)

Ne_frag = 18
Ne_env = 18

boundary_atoms = None
boundary_atoms2 =None

umat = None
umat = np.load("umat.npy")

params = oep.OEPparams(algorithm = 'leastsq', opt_method = 'L-BFGS-B', diffP_tol=1e-4, outer_maxit = 10)
params.options['ftol'] = 1e-9
params.options['gtol'] = 1e-3
params.options['maxiter'] = 10
params.options['svd_thresh'] = 1e-4

theDMFET = dfet.DFET(mf, mol_frag, mol_env,Ne_frag,Ne_env,\
                     boundary_atoms=boundary_atoms, boundary_atoms2=boundary_atoms2,umat = umat,\
                     oep_params=params, smear_sigma=temp, ecw_method = 'hf',mf_method = mf.xc, plot_dens=True)

umat = theDMFET.embedding_potential()
#INFO: ******************** input file end ********************


System: uname_result(system='Linux', node='tigercpu.princeton.edu', release='3.10.0-957.27.2.el7.x86_64', version='#1 SMP Tue Jul 30 11:12:20 EDT 2019', machine='x86_64', processor='x86_64')  Threads 40
Python 3.7.0 (default, Jun 28 2018, 13:15:42) 
[GCC 7.2.0]
numpy 1.16.4  scipy 1.4.0.dev0+0f78e0f
Date: Thu Aug 15 21:31:44 2019
PySCF version 1.5
PySCF path  /home/xingz/.local/lib/python3.7/site-packages/pyscf

[CONFIG] conf_file None
[INPUT] verbose = 4
[INPUT] num. atoms = 12
[INPUT] num. electrons = 18
[INPUT] charge = 0
[INPUT] spin (= nelec alpha-beta = 2S) = 0
[INPUT] symmetry False subgroup None
[INPUT] Mole.unit = angstrom
[INPUT]  1 Al     8.092960000000   4.046480000000  -0.000000000000 AA   15.293477937060   7.646738968530  -0.000000000000 Bohr
[INPUT]  2 Al     8.092960000000   6.069720000000  -2.023240000000 AA   15.293477937060  11.470108452795  -3.823369484265 Bohr
[INPUT]  3 Al    10.116200000000   4.046480000000  -2.023240000000 AA   19.116847421325   7.646738968530  -3.823369484265 Bohr
[INPUT]  4 Al     6.069720000000   4.046480000000  -2.023240000000 AA   11.470108452795   7.646738968530  -3.823369484265 Bohr
[INPUT]  5 Al     8.092960000000   2.023240000000  -2.023240000000 AA   15.293477937060   3.823369484265  -3.823369484265 Bohr
[INPUT]  6 Al     8.092960000000   4.046480000000  -4.046480000000 AA   15.293477937060   7.646738968530  -7.646738968530 Bohr
[INPUT]  7 GHOST-Al   6.069720000000   6.069720000000  -0.000000000000 AA   11.470108452795  11.470108452795  -0.000000000000 Bohr
[INPUT]  8 GHOST-Al  10.116200000000   2.023240000000  -0.000000000000 AA   19.116847421325   3.823369484265  -0.000000000000 Bohr
[INPUT]  9 GHOST-Al  10.116200000000   6.069720000000  -4.046480000000 AA   19.116847421325  11.470108452795  -7.646738968530 Bohr
[INPUT] 10 GHOST-Al   6.069720000000   2.023240000000  -0.000000000000 AA   11.470108452795   3.823369484265  -0.000000000000 Bohr
[INPUT] 11 GHOST-Al   6.069720000000   6.069720000000  -4.046480000000 AA   11.470108452795  11.470108452795  -7.646738968530 Bohr
[INPUT] 12 GHOST-Al  10.116200000000   2.023240000000  -4.046480000000 AA   19.116847421325   3.823369484265  -7.646738968530 Bohr

nuclear repulsion = 23.5047992975816
number of shells = 48
number of NR pGTOs = 192
number of NR cGTOs = 96
basis = stuttgartdz
ecp = stuttgartdz
CPU time:       335.21
#INFO: **** input file is /tigress/xingz/pydmfet/examples/research/Al12/dmfet/Al12.py ****
from pydmfet import locints, sdmfet, oep, tools, dfet_ao, proj_ao
from pydmfet.dfet_ao import dfet
from pydmfet.qcwrap.pyscf_rks_ao import rks_ao
from pyscf import gto, scf,dft, ao2mo,cc
import numpy as np
from pyscf.tools import molden, cubegen
import copy,time
from pydmfet.tools.sym import h_lattice_sym_tab

bas = 'stuttgartdz'
ecp = 'stuttgartdz'
temp = 0.005


mol = gto.Mole()
mol.atom = open('Al12.xyz').read()
mol.basis = bas
mol.ecp = ecp
mol.build(max_memory = 4000, verbose=4)

mf = rks_ao(mol,smear_sigma = temp)
mf.xc = 'pbe,pbe'
mf.max_cycle = 50
mf.scf(dm0=None)

natoms = mol.natm
impAtom = np.zeros([natoms], dtype=int)
for i in range(6):
    impAtom[i] = 1

ghost_frag = 1-impAtom
ghost_env = 1-ghost_frag

mol_frag = gto.Mole()
mol_frag.atom = tools.add_ghost(mol.atom, ghost_frag)
mol_frag.basis = bas
mol_frag.ecp = ecp
mol_frag.build(max_memory = 4000,verbose = 4)

mol_env = gto.Mole()
mol_env.atom = tools.add_ghost(mol.atom, ghost_env)
mol_env.basis =  bas
mol_env.ecp = ecp
mol_env.build(max_memory = 4000,verbose = 4)

Ne_frag = 18
Ne_env = 18

boundary_atoms = None
boundary_atoms2 =None

umat = None
umat = np.load("umat.npy")

params = oep.OEPparams(algorithm = 'leastsq', opt_method = 'L-BFGS-B', diffP_tol=1e-4, outer_maxit = 10)
params.options['ftol'] = 1e-9
params.options['gtol'] = 1e-3
params.options['maxiter'] = 10
params.options['svd_thresh'] = 1e-4

theDMFET = dfet.DFET(mf, mol_frag, mol_env,Ne_frag,Ne_env,\
                     boundary_atoms=boundary_atoms, boundary_atoms2=boundary_atoms2,umat = umat,\
                     oep_params=params, smear_sigma=temp, ecw_method = 'hf',mf_method = mf.xc, plot_dens=True)

umat = theDMFET.embedding_potential()
#INFO: ******************** input file end ********************


System: uname_result(system='Linux', node='tigercpu.princeton.edu', release='3.10.0-957.27.2.el7.x86_64', version='#1 SMP Tue Jul 30 11:12:20 EDT 2019', machine='x86_64', processor='x86_64')  Threads 40
Python 3.7.0 (default, Jun 28 2018, 13:15:42) 
[GCC 7.2.0]
numpy 1.16.4  scipy 1.4.0.dev0+0f78e0f
Date: Thu Aug 15 21:31:44 2019
PySCF version 1.5
PySCF path  /home/xingz/.local/lib/python3.7/site-packages/pyscf

[CONFIG] conf_file None
[INPUT] verbose = 4
[INPUT] num. atoms = 12
[INPUT] num. electrons = 18
[INPUT] charge = 0
[INPUT] spin (= nelec alpha-beta = 2S) = 0
[INPUT] symmetry False subgroup None
[INPUT] Mole.unit = angstrom
[INPUT]  1 GHOST-Al   8.092960000000   4.046480000000  -0.000000000000 AA   15.293477937060   7.646738968530  -0.000000000000 Bohr
[INPUT]  2 GHOST-Al   8.092960000000   6.069720000000  -2.023240000000 AA   15.293477937060  11.470108452795  -3.823369484265 Bohr
[INPUT]  3 GHOST-Al  10.116200000000   4.046480000000  -2.023240000000 AA   19.116847421325   7.646738968530  -3.823369484265 Bohr
[INPUT]  4 GHOST-Al   6.069720000000   4.046480000000  -2.023240000000 AA   11.470108452795   7.646738968530  -3.823369484265 Bohr
[INPUT]  5 GHOST-Al   8.092960000000   2.023240000000  -2.023240000000 AA   15.293477937060   3.823369484265  -3.823369484265 Bohr
[INPUT]  6 GHOST-Al   8.092960000000   4.046480000000  -4.046480000000 AA   15.293477937060   7.646738968530  -7.646738968530 Bohr
[INPUT]  7 Al     6.069720000000   6.069720000000  -0.000000000000 AA   11.470108452795  11.470108452795  -0.000000000000 Bohr
[INPUT]  8 Al    10.116200000000   2.023240000000  -0.000000000000 AA   19.116847421325   3.823369484265  -0.000000000000 Bohr
[INPUT]  9 Al    10.116200000000   6.069720000000  -4.046480000000 AA   19.116847421325  11.470108452795  -7.646738968530 Bohr
[INPUT] 10 Al     6.069720000000   2.023240000000  -0.000000000000 AA   11.470108452795   3.823369484265  -0.000000000000 Bohr
[INPUT] 11 Al     6.069720000000   6.069720000000  -4.046480000000 AA   11.470108452795  11.470108452795  -7.646738968530 Bohr
[INPUT] 12 Al    10.116200000000   2.023240000000  -4.046480000000 AA   19.116847421325   3.823369484265  -7.646738968530 Bohr

nuclear repulsion = 14.0938802665721
number of shells = 48
number of NR pGTOs = 192
number of NR cGTOs = 96
basis = stuttgartdz
ecp = stuttgartdz
CPU time:       335.61


******** <class 'pydmfet.dfet_ao.scf.EmbedSCF'> flags ********
method = EmbedSCF-RKS-RHF
initial guess = minao
damping factor = 0
level shift factor = 0
DIIS = <class 'pyscf.scf.diis.CDIIS'>
DIIS start cycle = 1
DIIS space = 8
SCF tol = 1e-09
SCF gradient tol = None
max. SCF cycles = 50
direct_scf = False
chkfile to save SCF result = /tigress/xingz/pydmfet/examples/research/Al12/dmfet/tmpj16hc3_c
max_memory 4000 MB (current use 566 MB)
XC functionals = pbe,pbe
small_rho_cutoff = 1e-07
radial grids: 
    Treutler-Ahlrichs (JCP 102, 346 (M4)) radial grids
    
becke partition: Becke, JCP, 88, 2547 (1988)
pruning grids: <function nwchem_prune at 0x2abe4ab28400>
grids dens level: 3
symmetrized grids: False
atomic radii adjust function: <function treutler_atomic_radii_adjust at 0x2abe4ab28378>
Set gradient conv threshold to 3.16228e-05
tot grids = 190200
init E= -10.6028439835408
HOMO: -0.09886509065313893 LUMO: -0.09886505087031146
mo_energy:
[-0.3514 -0.2426 -0.2426 -0.241  -0.1489 -0.1489 -0.1086 -0.0989 -0.0989
 -0.0989 -0.0519 -0.0519 -0.0518  0.0054]
e_fermi =  -0.09495206335170565
[2.    2.    2.    2.    2.    2.    1.878 1.376 1.372 1.372]
entropy correction =  -0.021001876026061957
cycle= 1 E= -11.9808888530478  delta_E= -1.38  |g|= 0.374  |ddm|= 4.56
HOMO: -0.2367612262285388 LUMO: -0.22953704734645236
mo_energy:
[-0.556 -0.412 -0.412 -0.409 -0.272 -0.272 -0.237 -0.237 -0.237 -0.23
 -0.168 -0.168 -0.168 -0.105]
e_fermi =  -0.22902621971287476
[2.    2.    2.    2.    2.    2.    1.65  1.65  1.649 1.051]
entropy correction =  -0.020871786692144338
cycle= 2 E= -11.9161992141683  delta_E= 0.0647  |g|= 0.427  |ddm|= 1.98
HOMO: -0.17820353389720828 LUMO: -0.17820302482631875
mo_energy:
[-0.456 -0.335 -0.335 -0.333 -0.228 -0.228 -0.186 -0.178 -0.178 -0.178
 -0.128 -0.128 -0.128 -0.062]
e_fermi =  -0.1741371930257419
[2.    2.    2.    2.    2.    2.    1.838 1.391 1.386 1.386]
entropy correction =  -0.02133662342314453
cycle= 3 E= -12.037933739576  delta_E= -0.122  |g|= 0.0172  |ddm|= 1.24
HOMO: -0.17441598450261353 LUMO: -0.174362264231898
mo_energy:
[-0.453 -0.331 -0.331 -0.329 -0.222 -0.222 -0.181 -0.174 -0.174 -0.174
 -0.122 -0.122 -0.122 -0.057]
e_fermi =  -0.17013633233664885
[2.    2.    2.    2.    2.    2.    1.793 1.404 1.404 1.399]
entropy correction =  -0.02165353513845973
cycle= 4 E= -12.0383062923123  delta_E= -0.000373  |g|= 0.00241  |ddm|= 0.0613
HOMO: -0.1751818610998362 LUMO: -0.17518054385762954
mo_energy:
[-0.454 -0.332 -0.332 -0.33  -0.223 -0.223 -0.182 -0.175 -0.175 -0.175
 -0.123 -0.123 -0.123 -0.058]
e_fermi =  -0.17096050777073812
[2.    2.    2.    2.    2.    2.    1.799 1.404 1.399 1.399]
entropy correction =  -0.02161872271621783
cycle= 5 E= -12.0382892628538  delta_E= 1.7e-05  |g|= 0.00591  |ddm|= 0.0137
HOMO: -0.17522011812537655 LUMO: -0.17521960568535147
mo_energy:
[-0.454 -0.332 -0.332 -0.33  -0.223 -0.223 -0.182 -0.175 -0.175 -0.175
 -0.123 -0.123 -0.123 -0.058]
e_fermi =  -0.1709913487378151
[2.    2.    2.    2.    2.    2.    1.798 1.403 1.399 1.399]
entropy correction =  -0.0216196782705296
cycle= 6 E= -12.038309882747  delta_E= -2.06e-05  |g|= 0.00102  |ddm|= 0.00935
HOMO: -0.17525693360040087 LUMO: -0.17525633154201148
mo_energy:
[-0.454 -0.332 -0.332 -0.33  -0.223 -0.223 -0.182 -0.175 -0.175 -0.175
 -0.123 -0.123 -0.123 -0.058]
e_fermi =  -0.17101585961416405
[2.    2.    2.    2.    2.    2.    1.798 1.401 1.4   1.4  ]
entropy correction =  -0.02162184112346459
cycle= 7 E= -12.038310781366  delta_E= -8.99e-07  |g|= 5.59e-05  |ddm|= 0.00262
HOMO: -0.17526268922350502 LUMO: -0.1752623088296876
mo_energy:
[-0.454 -0.332 -0.332 -0.33  -0.223 -0.223 -0.182 -0.175 -0.175 -0.175
 -0.123 -0.123 -0.123 -0.058]
e_fermi =  -0.17102114144113953
[2.    2.    2.    2.    2.    2.    1.798 1.401 1.4   1.4  ]
entropy correction =  -0.021622529230483165
cycle= 8 E= -12.0383107678836  delta_E= 1.35e-08  |g|= 0.000162  |ddm|= 0.000311
HOMO: -0.17526497941008642 LUMO: -0.1752646023047983
mo_energy:
[-0.454 -0.332 -0.332 -0.33  -0.223 -0.223 -0.182 -0.175 -0.175 -0.175
 -0.123 -0.123 -0.123 -0.058]
e_fermi =  -0.17102322298198383
[2.    2.    2.    2.    2.    2.    1.798 1.401 1.4   1.4  ]
entropy correction =  -0.02162280473662349
cycle= 9 E= -12.0383107835519  delta_E= -1.57e-08  |g|= 7.5e-06  |ddm|= 0.000231
HOMO: -0.17526381504264604 LUMO: -0.1752631344031825
mo_energy:
[-0.454 -0.332 -0.332 -0.33  -0.223 -0.223 -0.182 -0.175 -0.175 -0.175
 -0.123 -0.123 -0.123 -0.058]
e_fermi =  -0.1710220169896351
[2.    2.    2.    2.    2.    2.    1.798 1.401 1.4   1.4  ]
entropy correction =  -0.02162265496139404
cycle= 10 E= -12.0383107835791  delta_E= -2.72e-11  |g|= 4.44e-06  |ddm|= 3.17e-05
HOMO: -0.17526358707786224 LUMO: -0.17526312224257531
mo_energy:
[-0.454 -0.332 -0.332 -0.33  -0.223 -0.223 -0.182 -0.175 -0.175 -0.175
 -0.123 -0.123 -0.123 -0.058]
e_fermi =  -0.17102192987068388
[2.    2.    2.    2.    2.    2.    1.798 1.401 1.4   1.4  ]
entropy correction =  -0.02162264667652965
Extra cycle  E= -12.0383107834602  delta_E= 1.19e-10  |g|= 1.14e-05  |ddm|= 4.84e-05
converged SCF energy = -12.0383107834602


******** <class 'pydmfet.dfet_ao.scf.EmbedSCF'> flags ********
method = EmbedSCF-RKS-RHF
initial guess = minao
damping factor = 0
level shift factor = 0
DIIS = <class 'pyscf.scf.diis.CDIIS'>
DIIS start cycle = 1
DIIS space = 8
SCF tol = 1e-09
SCF gradient tol = None
max. SCF cycles = 50
direct_scf = False
chkfile to save SCF result = /tigress/xingz/pydmfet/examples/research/Al12/dmfet/tmp9njyvekj
max_memory 4000 MB (current use 1241 MB)
XC functionals = pbe,pbe
small_rho_cutoff = 1e-07
radial grids: 
    Treutler-Ahlrichs (JCP 102, 346 (M4)) radial grids
    
becke partition: Becke, JCP, 88, 2547 (1988)
pruning grids: <function nwchem_prune at 0x2abe4ab28400>
grids dens level: 3
symmetrized grids: False
atomic radii adjust function: <function treutler_atomic_radii_adjust at 0x2abe4ab28378>
Set gradient conv threshold to 3.16228e-05
tot grids = 190200
init E= -10.325851283299
HOMO: -0.06429813352978805 LUMO: -0.06100878443979504
mo_energy:
[-0.232 -0.222 -0.222 -0.201 -0.201 -0.194 -0.066 -0.064 -0.064 -0.061
 -0.058 -0.058 -0.051 -0.038]
e_fermi =  -0.062356321482745065
[2.    2.    2.    2.    2.    2.    1.37  1.192 1.192 0.866 0.575 0.575
 0.201 0.015 0.006 0.006]
entropy correction =  -0.042768597681561035
cycle= 1 E= -11.7993846489809  delta_E= -1.47  |g|= 0.196  |ddm|= 4.44
HOMO: -0.1375089332865592 LUMO: -0.1375077122779967
mo_energy:
[-0.319 -0.31  -0.31  -0.29  -0.29  -0.284 -0.138 -0.138 -0.138 -0.138
 -0.134 -0.134 -0.12  -0.109]
e_fermi =  -0.13668332336412684
[2.    2.    2.    2.    2.    2.    1.134 1.116 1.082 1.082 0.754 0.754
 0.064 0.007 0.003 0.003]
entropy correction =  -0.04268826440204191
cycle= 2 E= -11.8156836918403  delta_E= -0.0163  |g|= 0.0573  |ddm|= 1.06
HOMO: -0.12065542504226807 LUMO: -0.11995778696916497
mo_energy:
[-0.299 -0.29  -0.29  -0.271 -0.271 -0.265 -0.122 -0.121 -0.121 -0.12
 -0.117 -0.117 -0.104 -0.093]
e_fermi =  -0.11972285135318471
[2.    2.    2.    2.    2.    2.    1.198 1.094 1.093 1.023 0.743 0.743
 0.087 0.01  0.004 0.004]
entropy correction =  -0.043085868371612615
cycle= 3 E= -11.816985622785  delta_E= -0.0013  |g|= 0.00989  |ddm|= 0.261
HOMO: -0.12060838100594395 LUMO: -0.11978128983518506
mo_energy:
[-0.299 -0.29  -0.29  -0.27  -0.27  -0.264 -0.122 -0.121 -0.121 -0.12
 -0.117 -0.117 -0.104 -0.093]
e_fermi =  -0.11959594867771606
[2.    2.    2.    2.    2.    2.    1.195 1.124 1.101 1.019 0.729 0.726
 0.087 0.009 0.004 0.004]
entropy correction =  -0.04295731599422732
cycle= 4 E= -11.8156086072793  delta_E= 0.00138  |g|= 0.0399  |ddm|= 0.0923
HOMO: -0.1205721481485471 LUMO: -0.12002319681303686
mo_energy:
[-0.299 -0.29  -0.29  -0.27  -0.27  -0.264 -0.122 -0.121 -0.121 -0.12
 -0.117 -0.117 -0.104 -0.093]
e_fermi =  -0.11958928063420285
[2.    2.    2.    2.    2.    2.    1.191 1.098 1.098 1.043 0.732 0.731
 0.087 0.009 0.004 0.004]
entropy correction =  -0.04301006939743365
cycle= 5 E= -11.8171025634238  delta_E= -0.00149  |g|= 0.00411  |ddm|= 0.0836
HOMO: -0.12055920599569132 LUMO: -0.12003358051301838
mo_energy:
[-0.299 -0.29  -0.29  -0.27  -0.27  -0.264 -0.121 -0.121 -0.121 -0.12
 -0.117 -0.117 -0.104 -0.093]
e_fermi =  -0.11957215158802478
[2.    2.    2.    2.    2.    2.    1.188 1.1   1.098 1.046 0.733 0.729
 0.087 0.009 0.004 0.004]
entropy correction =  -0.04300766087292054
cycle= 6 E= -11.8171095524424  delta_E= -6.99e-06  |g|= 0.00311  |ddm|= 0.0119
HOMO: -0.12060629408157347 LUMO: -0.12007554191417219
mo_energy:
[-0.299 -0.29  -0.29  -0.27  -0.27  -0.264 -0.122 -0.121 -0.121 -0.12
 -0.117 -0.117 -0.104 -0.093]
e_fermi =  -0.11961634340161546
[2.    2.    2.    2.    2.    2.    1.188 1.1   1.099 1.046 0.732 0.73
 0.087 0.009 0.004 0.004]
entropy correction =  -0.04300727625342793
cycle= 7 E= -11.8171171547449  delta_E= -7.6e-06  |g|= 0.00106  |ddm|= 0.00868
HOMO: -0.1206367853861886 LUMO: -0.12009983619040672
mo_energy:
[-0.299 -0.29  -0.29  -0.27  -0.27  -0.264 -0.122 -0.121 -0.121 -0.12
 -0.117 -0.117 -0.104 -0.093]
e_fermi =  -0.11964514411699027
[2.    2.    2.    2.    2.    2.    1.188 1.099 1.099 1.045 0.732 0.731
 0.087 0.009 0.004 0.004]
entropy correction =  -0.04300714370464143
cycle= 8 E= -11.8171138394955  delta_E= 3.32e-06  |g|= 0.00215  |ddm|= 0.00611
HOMO: -0.12064375706066993 LUMO: -0.12010929028885522
mo_energy:
[-0.299 -0.29  -0.29  -0.27  -0.27  -0.264 -0.122 -0.121 -0.121 -0.12
 -0.117 -0.117 -0.104 -0.093]
e_fermi =  -0.11965488561114763
[2.    2.    2.    2.    2.    2.    1.188 1.099 1.099 1.045 0.732 0.731
 0.087 0.009 0.004 0.004]
entropy correction =  -0.043007307190867365
cycle= 9 E= -11.8171179704503  delta_E= -4.13e-06  |g|= 0.000501  |ddm|= 0.00461
HOMO: -0.12065406268922968 LUMO: -0.12011660471101845
mo_energy:
[-0.299 -0.29  -0.29  -0.27  -0.27  -0.264 -0.122 -0.121 -0.121 -0.12
 -0.117 -0.117 -0.104 -0.093]
e_fermi =  -0.11966434289646183
[2.    2.    2.    2.    2.    2.    1.189 1.099 1.099 1.045 0.732 0.732
 0.087 0.009 0.004 0.004]
entropy correction =  -0.04300755423978972
cycle= 10 E= -11.817118219917  delta_E= -2.49e-07  |g|= 9.94e-05  |ddm|= 0.00159
HOMO: -0.12064856364637307 LUMO: -0.12011081400943335
mo_energy:
[-0.299 -0.29  -0.29  -0.27  -0.27  -0.264 -0.122 -0.121 -0.121 -0.12
 -0.117 -0.117 -0.104 -0.093]
e_fermi =  -0.11965922313885927
[2.    2.    2.    2.    2.    2.    1.189 1.099 1.099 1.045 0.732 0.732
 0.087 0.009 0.004 0.004]
entropy correction =  -0.04300758134275886
cycle= 11 E= -11.8171182278849  delta_E= -7.97e-09  |g|= 8.97e-06  |ddm|= 0.000266
HOMO: -0.12065023147983157 LUMO: -0.12011286451938429
mo_energy:
[-0.299 -0.29  -0.29  -0.27  -0.27  -0.264 -0.122 -0.121 -0.121 -0.12
 -0.117 -0.117 -0.104 -0.093]
e_fermi =  -0.11966027180573308
[2.    2.    2.    2.    2.    2.    1.188 1.099 1.099 1.045 0.732 0.732
 0.087 0.009 0.004 0.004]
entropy correction =  -0.043007458543850526
cycle= 12 E= -11.8171182279872  delta_E= -1.02e-10  |g|= 9.53e-06  |ddm|= 0.000164
HOMO: -0.12064879047786765 LUMO: -0.12011152916983772
mo_energy:
[-0.299 -0.29  -0.29  -0.27  -0.27  -0.264 -0.122 -0.121 -0.121 -0.12
 -0.117 -0.117 -0.104 -0.093]
e_fermi =  -0.1196594336282997
[2.    2.    2.    2.    2.    2.    1.189 1.099 1.099 1.045 0.732 0.732
 0.087 0.009 0.004 0.004]
entropy correction =  -0.043007556812212945
Extra cycle  E= -11.817118225195  delta_E= 2.79e-09  |g|= 5.23e-05  |ddm|= 0.0002
converged SCF energy = -11.817118225195
|umat| =  0.03026686788412181
rks_ao.ne_frozen =  0
Set gradient conv threshold to 3.16228e-05
Initial guess from hcore.
HOMO:  -3.4779885960608166 LUMO:  -3.2341095095845653
Fermi energy:      -3.3576272679
[2. 2. 2. 2. 2. 2. 2. 2. 2.]
tot grids = 190200
init E= -8.79014522634654
HOMO:  0.04381526161372876 LUMO:  0.05270069522002042
Fermi energy:       0.0471812351
[2.0000e+00 2.0000e+00 2.0000e+00 2.0000e+00 2.0000e+00 2.0000e+00
 1.8038e+00 1.8036e+00 1.3244e+00 4.9802e-01 4.9745e-01 3.9693e-02
 2.5312e-02 3.8357e-03 1.6203e-03 1.6193e-03 1.9297e-04 1.6785e-04
 1.6767e-04]
entropy correction =  -0.0259883978054888
cycle= 1 E= -5.70142993979082  delta_E= 3.09  |g|=  3.1  |ddm|= 11.1
HOMO:  -1.030022142168471 LUMO:  -0.8137492247475859
Fermi energy:      -0.9211681355
[2. 2. 2. 2. 2. 2. 2. 2. 2.]
entropy correction =  -4.728461836157723e-10
cycle= 2 E= -9.21050460910133  delta_E= -3.51  |g|=  1.7  |ddm|= 10.7
HOMO:  -0.20433557479416792 LUMO:  -0.17868518843315476
Fermi energy:      -0.1887589818
[2.0000e+00 2.0000e+00 2.0000e+00 2.0000e+00 2.0000e+00 2.0000e+00
 1.9319e+00 1.9151e+00 1.9150e+00 2.3532e-01 1.0484e-03 1.0477e-03
 6.2290e-04]
entropy correction =  -0.008741196083991569
cycle= 3 E= -11.7205527798453  delta_E= -2.51  |g|= 0.593  |ddm|= 8.28
HOMO:  -0.08377622166287729 LUMO:  -0.08279972857965968
Fermi energy:      -0.0796316718
[2.0000e+00 2.0000e+00 2.0000e+00 2.0000e+00 2.0000e+00 2.0000e+00
 1.9033e+00 1.3923e+00 1.3922e+00 1.3066e+00 1.8620e-03 1.8423e-03
 1.8423e-03]
entropy correction =  -0.020893786883469767
cycle= 4 E= -11.7407051442355  delta_E= -0.0202  |g|= 0.826  |ddm|= 1.47
HOMO:  -0.10298407039298067 LUMO:  -0.1024234000288125
Fermi energy:      -0.0989591548
[2.0000e+00 2.0000e+00 2.0000e+00 2.0000e+00 2.0000e+00 2.0000e+00
 1.8997e+00 1.3821e+00 1.3821e+00 1.3332e+00 1.0127e-03 9.8820e-04
 9.8804e-04]
entropy correction =  -0.020850357469586016
cycle= 5 E= -11.8722153518554  delta_E= -0.132  |g|= 0.629  |ddm|= 0.388
HOMO:  -0.1588223921950596 LUMO:  -0.15826526741065683
Fermi energy:      -0.1546077487
[2.0000e+00 2.0000e+00 2.0000e+00 2.0000e+00 2.0000e+00 2.0000e+00
 1.8527e+00 1.3982e+00 1.3982e+00 1.3503e+00 2.5448e-04 2.4954e-04
 2.4943e-04]
entropy correction =  -0.02120927413131151
cycle= 6 E= -12.0274387262417  delta_E= -0.155  |g|= 0.138  |ddm|= 0.937
HOMO:  -0.1655927998108135 LUMO:  -0.16555716521897174
Fermi energy:      -0.1614762593
[2.0000e+00 2.0000e+00 2.0000e+00 2.0000e+00 2.0000e+00 2.0000e+00
 1.8325e+00 1.3903e+00 1.3899e+00 1.3869e+00 1.9438e-04 1.9347e-04
 1.8630e-04]
entropy correction =  -0.02137685261114575
cycle= 7 E= -12.0257617676092  delta_E= 0.00168  |g|= 0.146  |ddm|= 0.284
HOMO:  -0.1745425587965322 LUMO:  -0.1745274417397307
Fermi energy:      -0.1704440951
[2.0000e+00 2.0000e+00 2.0000e+00 2.0000e+00 1.9999e+00 1.9999e+00
 1.7937e+00 1.4306e+00 1.3883e+00 1.3871e+00 1.4593e-04 1.4504e-04
 1.3951e-04]
entropy correction =  -0.021642798711173628
cycle= 8 E= -12.0381138683467  delta_E= -0.0124  |g|= 0.0147  |ddm|= 0.253
HOMO:  -0.1755978624408375 LUMO:  -0.17551379095513656
Fermi energy:      -0.1713015674
[2.0000e+00 2.0000e+00 2.0000e+00 2.0000e+00 1.9999e+00 1.9999e+00
 1.7905e+00 1.4062e+00 1.4050e+00 1.3980e+00 1.4323e-04 1.4313e-04
 1.4259e-04]
entropy correction =  -0.021670694583093033
cycle= 9 E= -12.0383186589696  delta_E= -0.000205  |g|= 0.00436  |ddm|= 0.0516
HOMO:  -0.17517815087747454 LUMO:  -0.17515031619106364
Fermi energy:      -0.1709277501
[2.0000e+00 2.0000e+00 2.0000e+00 2.0000e+00 1.9999e+00 1.9999e+00
 1.7978e+00 1.4019e+00 1.4012e+00 1.3988e+00 1.4896e-04 1.4836e-04
 1.4807e-04]
entropy correction =  -0.021623589364634602
cycle= 10 E= -12.0383101596194  delta_E= 8.5e-06  |g|= 0.00622  |ddm|= 0.0153
HOMO:  -0.1752742372810449 LUMO:  -0.17526145894914438
Fermi energy:      -0.1710302827
[2.0000e+00 2.0000e+00 2.0000e+00 2.0000e+00 1.9999e+00 1.9999e+00
 1.7987e+00 1.4008e+00 1.4006e+00 1.3996e+00 1.4943e-04 1.4906e-04
 1.4859e-04]
entropy correction =  -0.021617451846628874
cycle= 11 E= -12.0383333519455  delta_E= -2.32e-05  |g|= 0.000311  |ddm|= 0.00904
HOMO:  -0.17526690209973203 LUMO:  -0.17526307169699312
Fermi energy:      -0.1710303174
[2.0000e+00 2.0000e+00 2.0000e+00 2.0000e+00 1.9999e+00 1.9999e+00
 1.7981e+00 1.4019e+00 1.4000e+00 1.3997e+00 1.4921e-04 1.4886e-04
 1.4800e-04]
entropy correction =  -0.021621730765365256
cycle= 12 E= -12.0383333537571  delta_E= -1.81e-09  |g|= 0.000307  |ddm|= 0.00166
HOMO:  -0.17527420021767245 LUMO:  -0.17527371221631818
Fermi energy:      -0.1710322326
[2.0000e+00 2.0000e+00 2.0000e+00 2.0000e+00 1.9999e+00 1.9999e+00
 1.7979e+00 1.4009e+00 1.4005e+00 1.4004e+00 1.4881e-04 1.4879e-04
 1.4817e-04]
entropy correction =  -0.021622731320751012
cycle= 13 E= -12.0383334545442  delta_E= -1.01e-07  |g|= 2.35e-05  |ddm|= 0.000981
HOMO:  -0.17527302114367566 LUMO:  -0.1752725199567912
Fermi energy:      -0.1710310808
[2.0000e+00 2.0000e+00 2.0000e+00 2.0000e+00 1.9999e+00 1.9999e+00
 1.7979e+00 1.4009e+00 1.4005e+00 1.4004e+00 1.4881e-04 1.4878e-04
 1.4817e-04]
entropy correction =  -0.021622766340898325
cycle= 14 E= -12.0383334552045  delta_E= -6.6e-10  |g|= 7.89e-06  |ddm|= 8.55e-05
HOMO:  -0.17527084412495844 LUMO:  -0.17527040760034998
Fermi energy:      -0.1710290926
[2.0000e+00 2.0000e+00 2.0000e+00 2.0000e+00 1.9999e+00 1.9999e+00
 1.7980e+00 1.4009e+00 1.4004e+00 1.4004e+00 1.4883e-04 1.4880e-04
 1.4819e-04]
entropy correction =  -0.021622572496137357
Extra cycle  E= -12.0383334545199  delta_E= 6.85e-10  |g|= 3.49e-05  |ddm|= 6.67e-05
entropy correction =  -0.021622572496137357
rks_ao.ne_frozen =  0
Set gradient conv threshold to 3.16228e-05
Initial guess from hcore.
HOMO:  -2.4471696379725767 LUMO:  -2.434575734488435
Fermi energy:      -2.4416899766
[2.     2.     2.     2.     2.     2.     2.     1.4992 1.499  0.3884
 0.3868 0.1959 0.0306]
tot grids = 190200
init E= -8.55118462569509
HOMO:  0.022894428432834606 LUMO:  0.022898719206719834
Fermi energy:       0.0214216350
[2.0000e+00 2.0000e+00 2.0000e+00 2.0000e+00 2.0000e+00 2.0000e+00
 1.3505e+00 1.3503e+00 8.5378e-01 8.5336e-01 4.5187e-01 3.9179e-01
 2.5596e-01 2.5578e-01 1.8479e-01 1.3553e-02 1.3534e-02 7.4126e-03
 7.4101e-03 4.1906e-03 3.9056e-03 1.2999e-03 2.7879e-04 2.7842e-04]
entropy correction =  -0.04894908061439357
cycle= 1 E= -9.86949934681529  delta_E= -1.32  |g|= 1.65  |ddm|= 12.2
HOMO:  -0.3607759239787802 LUMO:  -0.3539190875623135
Fermi energy:      -0.3595692216
[2.     2.     2.     2.     2.     2.     1.992  1.1225 1.1201 0.4883
 0.4768 0.4763 0.324 ]
entropy correction =  -0.034949098210207606
cycle= 2 E= -9.62074961983631  delta_E= 0.249  |g|= 2.11  |ddm|= 10.6
HOMO:  -0.20447232879445373 LUMO:  -0.19289061047565528
Fermi energy:      -0.1984886413
[2.0000e+00 2.0000e+00 2.0000e+00 2.0000e+00 2.0000e+00 2.0000e+00
 1.8305e+00 1.5604e+00 1.5359e+00 4.9217e-01 4.8731e-01 6.6052e-02
 1.8515e-02 8.3457e-03 2.5660e-04 2.5085e-04 1.3025e-04 1.2941e-04]
entropy correction =  -0.027004699950083783
cycle= 3 E= -11.6604645231215  delta_E= -2.04  |g|= 0.434  |ddm|= 4.12
HOMO:  -0.15071277225412902 LUMO:  -0.139659958048291
Fermi energy:      -0.1452986617
[2.0000e+00 2.0000e+00 2.0000e+00 2.0000e+00 2.0000e+00 2.0000e+00
 1.8888e+00 1.7130e+00 1.4941e+00 4.8916e-01 2.9166e-01 5.8006e-02
 4.9328e-02 1.2571e-02 2.7522e-03 5.1550e-04]
entropy correction =  -0.024618962652809356
cycle= 4 E= -11.2734552668299  delta_E= 0.387  |g|= 0.772  |ddm|= 2.73
HOMO:  -0.14386299750883422 LUMO:  -0.1393610198086807
Fermi energy:      -0.1412590723
[2.0000e+00 2.0000e+00 2.0000e+00 2.0000e+00 2.0000e+00 2.0000e+00
 1.4861e+00 1.3519e+00 1.2547e+00 8.1244e-01 5.9480e-01 3.9162e-01
 9.1480e-02 1.1474e-02 3.2840e-03 1.7472e-03 3.0402e-04 2.4051e-04]
entropy correction =  -0.03881814888278181
cycle= 5 E= -11.6812329923491  delta_E= -0.408  |g|= 0.396  |ddm|= 0.81
HOMO:  -0.138644468848854 LUMO:  -0.13816700681984878
Fermi energy:      -0.1380021065
[2.0000e+00 2.0000e+00 2.0000e+00 2.0000e+00 2.0000e+00 2.0000e+00
 1.2664e+00 1.1367e+00 1.0641e+00 1.0165e+00 8.1087e-01 5.9307e-01
 9.7142e-02 8.8068e-03 3.9357e-03 1.6156e-03 5.4949e-04 2.4705e-04]
entropy correction =  -0.0425533617063839
cycle= 6 E= -11.7876460534816  delta_E= -0.106  |g|= 0.201  |ddm|= 0.787
HOMO:  -0.13430331266916448 LUMO:  -0.13232480810418154
Fermi energy:      -0.1335334329
[2.0000e+00 2.0000e+00 2.0000e+00 2.0000e+00 2.0000e+00 2.0000e+00
 1.4342e+00 1.3786e+00 1.0768e+00 8.7972e-01 5.9682e-01 5.2481e-01
 9.3200e-02 9.7387e-03 3.6130e-03 1.7134e-03 5.3308e-04 2.6655e-04]
entropy correction =  -0.04019666574684854
cycle= 7 E= -11.7312846166564  delta_E= 0.0564  |g|= 0.307  |ddm|= 0.929
HOMO:  -0.13231929876070742 LUMO:  -0.13076191506980592
Fermi energy:      -0.1316333067
[2.0000e+00 2.0000e+00 2.0000e+00 2.0000e+00 2.0000e+00 2.0000e+00
 1.4701e+00 1.1945e+00 1.0685e+00 9.1308e-01 7.6855e-01 4.7267e-01
 9.6508e-02 9.7323e-03 3.9198e-03 1.6466e-03 6.0939e-04 2.5809e-04]
entropy correction =  -0.040945099256616414
cycle= 8 E= -11.7579436195472  delta_E= -0.0267  |g|= 0.254  |ddm|=  0.8
HOMO:  -0.12433958564530906 LUMO:  -0.12273950857194368
Fermi energy:      -0.1232038908
[2.0000e+00 2.0000e+00 2.0000e+00 2.0000e+00 2.0000e+00 2.0000e+00
 1.2506e+00 1.2014e+00 1.1131e+00 9.5360e-01 7.2093e-01 6.5241e-01
 9.0073e-02 9.2959e-03 4.2569e-03 3.1159e-03 6.2652e-04 5.1316e-04]
entropy correction =  -0.04243484206987613
cycle= 9 E= -11.8004787235621  delta_E= -0.0425  |g|= 0.134  |ddm|= 0.717
HOMO:  -0.12003377942048775 LUMO:  -0.11955127561947945
Fermi energy:      -0.1191184737
[2.0000e+00 2.0000e+00 2.0000e+00 2.0000e+00 2.0000e+00 2.0000e+00
 1.2064e+00 1.1218e+00 1.0913e+00 1.0433e+00 7.3776e-01 6.9249e-01
 8.8597e-02 8.7938e-03 4.5591e-03 3.7397e-03 6.8715e-04 6.0376e-04]
entropy correction =  -0.04287371694685637
cycle= 10 E= -11.8145348308977  delta_E= -0.0141  |g|= 0.0526  |ddm|= 0.288
HOMO:  -0.12031286620471927 LUMO:  -0.11935133387399793
Fermi energy:      -0.1191143021
[2.0000e+00 2.0000e+00 2.0000e+00 2.0000e+00 2.0000e+00 2.0000e+00
 1.1975e+00 1.1482e+00 1.1193e+00 1.0237e+00 7.7310e-01 6.2964e-01
 8.9641e-02 9.4775e-03 4.9087e-03 3.2865e-03 7.6317e-04 5.4443e-04]
entropy correction =  -0.04273070256296524
cycle= 11 E= -11.8099124222793  delta_E= 0.00462  |g|= 0.0857  |ddm|= 0.27
HOMO:  -0.12009613561014325 LUMO:  -0.11968560932065891
Fermi energy:      -0.1192884963
[2.0000e+00 2.0000e+00 2.0000e+00 2.0000e+00 2.0000e+00 2.0000e+00
 1.1965e+00 1.1137e+00 1.0806e+00 1.0397e+00 7.6105e-01 7.0165e-01
 8.7833e-02 9.5891e-03 4.3590e-03 3.6521e-03 7.3382e-04 6.3003e-04]
entropy correction =  -0.04300617328999468
cycle= 12 E= -11.8164550845179  delta_E= -0.00654  |g|= 0.0251  |ddm|= 0.261
HOMO:  -0.12032876614250325 LUMO:  -0.11974955382698144
Fermi energy:      -0.1193770186
[2.0000e+00 2.0000e+00 2.0000e+00 2.0000e+00 2.0000e+00 2.0000e+00
 1.1923e+00 1.1054e+00 1.0949e+00 1.0372e+00 7.4209e-01 7.2153e-01
 8.7614e-02 9.5173e-03 4.1399e-03 3.8544e-03 7.0268e-04 6.5866e-04]
entropy correction =  -0.04301700425083126
cycle= 13 E= -11.8168501898482  delta_E= -0.000395  |g|= 0.0168  |ddm|= 0.0912
HOMO:  -0.1205609627679573 LUMO:  -0.1200146095150399
Fermi energy:      -0.1195828634
[2.0000e+00 2.0000e+00 2.0000e+00 2.0000e+00 2.0000e+00 2.0000e+00
 1.1892e+00 1.1032e+00 1.0975e+00 1.0431e+00 7.3295e-01 7.2803e-01
 8.7276e-02 9.3696e-03 4.0068e-03 3.9250e-03 6.8350e-04 6.7183e-04]
entropy correction =  -0.04300294285104005
cycle= 14 E= -11.8170055346346  delta_E= -0.000155  |g|= 0.0113  |ddm|= 0.0374
HOMO:  -0.1206333473667866 LUMO:  -0.12009218885682521
Fermi energy:      -0.1196516111
[2.0000e+00 2.0000e+00 2.0000e+00 2.0000e+00 2.0000e+00 2.0000e+00
 1.1896e+00 1.0998e+00 1.0979e+00 1.0440e+00 7.3283e-01 7.3008e-01
 8.7130e-02 9.3613e-03 3.9758e-03 3.9408e-03 6.7883e-04 6.7369e-04]
entropy correction =  -0.043007182209055445
cycle= 15 E= -11.817097887543  delta_E= -9.24e-05  |g|= 0.0056  |ddm|= 0.0259
HOMO:  -0.12066486209648615 LUMO:  -0.12013100372568428
Fermi energy:      -0.1196828193
[2.0000e+00 2.0000e+00 2.0000e+00 2.0000e+00 2.0000e+00 2.0000e+00
 1.1887e+00 1.0995e+00 1.0979e+00 1.0448e+00 7.3287e-01 7.3057e-01
 8.7044e-02 9.3559e-03 3.9721e-03 3.9391e-03 6.7842e-04 6.7348e-04]
entropy correction =  -0.043008693467372405
cycle= 16 E= -11.8171254408953  delta_E= -2.76e-05  |g|= 0.00149  |ddm|= 0.0129
HOMO:  -0.12067167104285004 LUMO:  -0.12013540971815993
Fermi energy:      -0.1196817104
[2.0000e+00 2.0000e+00 2.0000e+00 2.0000e+00 2.0000e+00 2.0000e+00
 1.1883e+00 1.0991e+00 1.0987e+00 1.0453e+00 7.3183e-01 7.3112e-01
 8.7040e-02 9.3462e-03 3.9585e-03 3.9509e-03 6.7662e-04 6.7548e-04]
entropy correction =  -0.04300708661960691
cycle= 17 E= -11.8171253141853  delta_E= 1.27e-07  |g|= 0.00158  |ddm|= 0.00376
HOMO:  -0.12065800600846466 LUMO:  -0.12011861101545006
Fermi energy:      -0.1196676119
[2.0000e+00 2.0000e+00 2.0000e+00 2.0000e+00 2.0000e+00 2.0000e+00
 1.1886e+00 1.0988e+00 1.0987e+00 1.0451e+00 7.3161e-01 7.3154e-01
 8.7060e-02 9.3521e-03 3.9565e-03 3.9557e-03 6.7627e-04 6.7610e-04]
entropy correction =  -0.043008014717337
cycle= 18 E= -11.8171276689619  delta_E= -2.35e-06  |g|= 0.000108  |ddm|= 0.00324
HOMO:  -0.12065769871119102 LUMO:  -0.12011882896023014
Fermi energy:      -0.1196674216
[2.0000e+00 2.0000e+00 2.0000e+00 2.0000e+00 2.0000e+00 2.0000e+00
 1.1886e+00 1.0988e+00 1.0987e+00 1.0451e+00 7.3157e-01 7.3154e-01
 8.7060e-02 9.3516e-03 3.9564e-03 3.9557e-03 6.7622e-04 6.7616e-04]
entropy correction =  -0.0430079403836254
cycle= 19 E= -11.8171276787227  delta_E= -9.76e-09  |g|= 4.45e-05  |ddm|= 0.000285
HOMO:  -0.12065886742867837 LUMO:  -0.12011969805331749
Fermi energy:      -0.1196685465
[2.0000e+00 2.0000e+00 2.0000e+00 2.0000e+00 2.0000e+00 2.0000e+00
 1.1886e+00 1.0988e+00 1.0987e+00 1.0451e+00 7.3159e-01 7.3154e-01
 8.7059e-02 9.3514e-03 3.9562e-03 3.9558e-03 6.7620e-04 6.7613e-04]
entropy correction =  -0.0430079682496486
cycle= 20 E= -11.817127680195  delta_E= -1.47e-09  |g|= 1.97e-05  |ddm|= 0.000115
HOMO:  -0.12065805069792727 LUMO:  -0.12011898549982913
Fermi energy:      -0.1196678195
[2.0000e+00 2.0000e+00 2.0000e+00 2.0000e+00 2.0000e+00 2.0000e+00
 1.1886e+00 1.0988e+00 1.0987e+00 1.0451e+00 7.3158e-01 7.3156e-01
 8.7059e-02 9.3517e-03 3.9562e-03 3.9559e-03 6.7619e-04 6.7616e-04]
entropy correction =  -0.043008004779311715
cycle= 21 E= -11.8171276804132  delta_E= -2.18e-10  |g|= 1.27e-05  |ddm|= 7.96e-05
HOMO:  -0.1206590475289822 LUMO:  -0.12011973170520387
Fermi energy:      -0.1196685156
[2.0000e+00 2.0000e+00 2.0000e+00 2.0000e+00 2.0000e+00 2.0000e+00
 1.1886e+00 1.0988e+00 1.0987e+00 1.0451e+00 7.3162e-01 7.3151e-01
 8.7059e-02 9.3513e-03 3.9566e-03 3.9553e-03 6.7626e-04 6.7607e-04]
entropy correction =  -0.043007963151231676
Extra cycle  E= -11.8171276708857  delta_E= 9.53e-09  |g|= 0.000101  |ddm|= 0.000243
degenerate subspace detected:
nsub = 32
subspace 1:
2, 3, 
subspace 2:
5, 6, 
subspace 3:
8, 9, 10, 
subspace 4:
11, 12, 13, 
subspace 5:
14, 15, 16, 
subspace 6:
17, 18, 
subspace 7:
21, 22, 
subspace 8:
23, 24, 
subspace 9:
25, 26, 27, 
subspace 10:
29, 30, 
subspace 11:
33, 34, 
subspace 12:
35, 36, 37, 38, 
subspace 13:
40, 41, 
subspace 14:
42, 43, 
subspace 15:
45, 46, 
subspace 16:
49, 50, 
subspace 17:
51, 52, 53, 
subspace 18:
54, 55, 
subspace 19:
57, 58, 
subspace 20:
59, 60, 
subspace 21:
61, 62, 
subspace 22:
65, 66, 
subspace 23:
68, 69, 
subspace 24:
72, 73, 
subspace 25:
74, 75, 76, 
subspace 26:
77, 78, 
subspace 27:
79, 80, 
subspace 28:
82, 83, 
subspace 29:
87, 88, 
subspace 30:
89, 90, 
subspace 31:
92, 93, 
subspace 32:
94, 95, 

 Adding contributions from fluctuation of occupation numbers.
degenerate subspace detected:
nsub = 31
subspace 1:
2, 3, 
subspace 2:
4, 5, 
subspace 3:
7, 8, 9, 10, 
subspace 4:
11, 12, 
subspace 5:
15, 16, 
subspace 6:
17, 18, 
subspace 7:
20, 21, 22, 23, 
subspace 8:
25, 26, 
subspace 9:
30, 31, 
subspace 10:
32, 33, 
subspace 11:
35, 36, 
subspace 12:
37, 38, 
subspace 13:
41, 42, 
subspace 14:
45, 46, 
subspace 15:
48, 49, 
subspace 16:
51, 52, 
subspace 17:
53, 54, 55, 
subspace 18:
57, 58, 
subspace 19:
59, 60, 
subspace 20:
61, 62, 
subspace 21:
65, 66, 
subspace 22:
67, 68, 69, 
subspace 23:
72, 73, 
subspace 24:
74, 75, 
subspace 25:
77, 78, 
subspace 26:
79, 80, 
subspace 27:
82, 83, 
subspace 28:
86, 87, 
subspace 29:
88, 89, 
subspace 30:
93, 94, 
subspace 31:
95, 96, 

 Adding contributions from fluctuation of occupation numbers.
entropy correction =  -0.043007963151231676
2-norm (grad),       max(grad):
2.1117009551928403 ,  0.18301476450250675
time of hessian construction : 26.220  (cpu),  1.393  (wall) 
time of hessian construction : 24.200  (cpu),  0.621  (wall) 
f =  2.2296404620811767
|umat| =  1.3986885808502192
rks_ao.ne_frozen =  0
Set gradient conv threshold to 3.16228e-05
Initial guess from hcore.
HOMO:  -3.5810396457659226 LUMO:  -3.5602544008164108
Fermi energy:      -3.5721166683
[2.0000e+00 2.0000e+00 2.0000e+00 2.0000e+00 2.0000e+00 2.0000e+00
 2.0000e+00 2.0000e+00 1.7125e+00 1.7060e-01 1.1551e-01 7.0113e-04
 6.7025e-04]
tot grids = 190200
init E= -158.626926809499
HOMO:  -0.6493821291621691 LUMO:  -0.6289569443690943
Fermi energy:      -0.6391705979
[2.     2.     2.     2.     2.     2.     2.     2.     1.7703 0.2296]
entropy correction =  -0.007133989308277704
cycle= 1 E= -159.44307595922  delta_E= -0.816  |g|= 1.63  |ddm|=  108
HOMO:  -1.2472969603094297 LUMO:  -1.1497138633114905
Fermi energy:      -1.1987426103
[2.0000e+00 2.0000e+00 2.0000e+00 2.0000e+00 2.0000e+00 2.0000e+00
 2.0000e+00 2.0000e+00 1.9999e+00 1.1026e-04]
entropy correction =  -1.3198586875938703e-05
cycle= 2 E= -160.143410969976  delta_E= -0.7  |g|= 1.07  |ddm|=  102
HOMO:  -0.9286476684915526 LUMO:  -0.9128573071787324
Fermi energy:      -0.9210169112
[2.     2.     2.     2.     2.     2.     2.     2.     1.6429 0.3271
 0.03  ]
entropy correction =  -0.009925784017561036
cycle= 3 E= -160.394743423275  delta_E= -0.251  |g|= 0.656  |ddm|= 63.3
HOMO:  -0.9239537090067019 LUMO:  -0.9091424459806923
Fermi energy:      -0.9165879397
[2.     2.     2.     2.     2.     2.     2.     2.     1.6271 0.3681
 0.0048]
entropy correction =  -0.009754598560023626
cycle= 4 E= -160.484973790082  delta_E= -0.0902  |g|= 0.484  |ddm|= 1.84
HOMO:  -0.9375040854567521 LUMO:  -0.9336289076301003
Fermi energy:      -0.9363008096
[2.0000e+00 2.0000e+00 2.0000e+00 2.0000e+00 2.0000e+00 2.0000e+00
 2.0000e+00 2.0000e+00 1.1198e+00 7.3899e-01 1.4075e-01 5.1106e-04]
entropy correction =  -0.016016201431988397
cycle= 5 E= -160.583787483569  delta_E= -0.0988  |g|= 0.134  |ddm|= 23.6
HOMO:  -0.9283010558057138 LUMO:  -0.9131968265699174
Fermi energy:      -0.9214296113
[2.     2.     2.     2.     2.     2.     2.     2.     1.5961 0.3231
 0.0806]
entropy correction =  -0.011146468259689735
cycle= 6 E= -160.592213670206  delta_E= -0.00843  |g|= 0.0901  |ddm|= 18.3
HOMO:  -0.93132326802853 LUMO:  -0.9203164996378047
Fermi energy:      -0.9273376753
[2.0000e+00 2.0000e+00 2.0000e+00 2.0000e+00 2.0000e+00 2.0000e+00
 2.0000e+00 2.0000e+00 1.3787e+00 3.9429e-01 2.2680e-01 1.9279e-04]
entropy correction =  -0.014705874277800903
cycle= 7 E= -160.598539373109  delta_E= -0.00633  |g|= 0.0199  |ddm|= 8.78
HOMO:  -0.9321725730475187 LUMO:  -0.919847986073258
Fermi energy:      -0.9277091804
[2.0000e+00 2.0000e+00 2.0000e+00 2.0000e+00 2.0000e+00 2.0000e+00
 2.0000e+00 2.0000e+00 1.4189e+00 3.4379e-01 2.3712e-01 1.9976e-04]
entropy correction =  -0.014265982238675564
cycle= 8 E= -160.598694419942  delta_E= -0.000155  |g|= 0.00713  |ddm|= 1.46
HOMO:  -0.9323079185084697 LUMO:  -0.9204389192671587
Fermi energy:      -0.9279913720
[2.0000e+00 2.0000e+00 2.0000e+00 2.0000e+00 2.0000e+00 2.0000e+00
 2.0000e+00 2.0000e+00 1.4067e+00 3.6173e-01 2.3136e-01 2.0843e-04]
entropy correction =  -0.014399862248356795
cycle= 9 E= -160.598731354189  delta_E= -3.69e-05  |g|= 0.002  |ddm|= 0.498
HOMO:  -0.932343185067072 LUMO:  -0.920675480129502
Fermi energy:      -0.9280915586
[2.0000e+00 2.0000e+00 2.0000e+00 2.0000e+00 2.0000e+00 2.0000e+00
 2.0000e+00 2.0000e+00 1.4013e+00 3.6988e-01 2.2863e-01 2.1162e-04]
entropy correction =  -0.01445650985103256
cycle= 10 E= -160.598734351649  delta_E= -3e-06  |g|= 0.000506  |ddm|= 0.22
HOMO:  -0.9323344506319027 LUMO:  -0.9206379402148115
Fermi energy:      -0.9280738151
[2.0000e+00 2.0000e+00 2.0000e+00 2.0000e+00 2.0000e+00 2.0000e+00
 2.0000e+00 2.0000e+00 1.4020e+00 3.6869e-01 2.2907e-01 2.1143e-04]
entropy correction =  -0.014448901151631527
cycle= 11 E= -160.598734524867  delta_E= -1.73e-07  |g|= 8.67e-05  |ddm|= 0.0324
HOMO:  -0.9323322695044611 LUMO:  -0.9206242113170298
Fermi energy:      -0.9280673819
[2.0000e+00 2.0000e+00 2.0000e+00 2.0000e+00 2.0000e+00 2.0000e+00
 2.0000e+00 2.0000e+00 1.4024e+00 3.6825e-01 2.2915e-01 2.1128e-04]
entropy correction =  -0.01444495370231916
cycle= 12 E= -160.598734529735  delta_E= -4.87e-09  |g|= 4.12e-05  |ddm|= 0.0128
HOMO:  -0.932333094175744 LUMO:  -0.9206289671056744
Fermi energy:      -0.9280695493
[2.0000e+00 2.0000e+00 2.0000e+00 2.0000e+00 2.0000e+00 2.0000e+00
 2.0000e+00 2.0000e+00 1.4023e+00 3.6841e-01 2.2911e-01 2.1133e-04]
entropy correction =  -0.014446153334678318
cycle= 13 E= -160.598734531057  delta_E= -1.32e-09  |g|= 4.9e-06  |ddm|= 0.00426
HOMO:  -0.9323329674952321 LUMO:  -0.9206281072151279
Fermi energy:      -0.9280691587
[2.0000e+00 2.0000e+00 2.0000e+00 2.0000e+00 2.0000e+00 2.0000e+00
 2.0000e+00 2.0000e+00 1.4023e+00 3.6838e-01 2.2912e-01 2.1132e-04]
entropy correction =  -0.014445910952951073
cycle= 14 E= -160.598734531076  delta_E= -1.96e-11  |g|= 3.02e-06  |ddm|= 0.000801
HOMO:  -0.9323331767075791 LUMO:  -0.9206294450199914
Fermi energy:      -0.9280697506
[2.0000e+00 2.0000e+00 2.0000e+00 2.0000e+00 2.0000e+00 2.0000e+00
 2.0000e+00 2.0000e+00 1.4023e+00 3.6843e-01 2.2910e-01 2.1134e-04]
entropy correction =  -0.014446251399006805
Extra cycle  E= -160.598734530998  delta_E= 7.86e-11  |g|= 1.05e-05  |ddm|= 0.00123
entropy correction =  -0.014446251399006805
rks_ao.ne_frozen =  0
Set gradient conv threshold to 3.16228e-05
Initial guess from hcore.
HOMO:  -2.6708961492929086 LUMO:  -2.658626689885131
Fermi energy:      -2.6651428072
[2.     2.     2.     2.     2.     2.     2.     2.     1.5193 0.4272
 0.0535]
tot grids = 190200
init E= -158.908299868152
HOMO:  -0.5331671025369091 LUMO:  -0.42472993949054966
Fermi energy:      -0.4797141375
[2. 2. 2. 2. 2. 2. 2. 2. 2.]
entropy correction =  -6.868334459832681e-06
cycle= 1 E= -160.187666497996  delta_E= -1.28  |g|= 0.774  |ddm|= 80.4
HOMO:  -0.6971701592503416 LUMO:  -0.6895660861443715
Fermi energy:      -0.6944266745
[2.     2.     2.     2.     2.     2.     2.     1.7916 1.2677 0.5489
 0.2549 0.1368]
entropy correction =  -0.02209894036934016
cycle= 2 E= -160.24466260338  delta_E= -0.057  |g|= 0.384  |ddm|= 45.3
HOMO:  -0.6477569296215154 LUMO:  -0.6299967129550212
Fermi energy:      -0.6384810597
[2.     2.     2.     2.     2.     2.     2.     1.8566 1.7295 0.3097
 0.1014 0.0027]
entropy correction =  -0.012962576429084773
cycle= 3 E= -160.330003717773  delta_E= -0.0853  |g|= 0.21  |ddm|= 32.7
HOMO:  -0.6425651638661014 LUMO:  -0.6255403489789646
Fermi energy:      -0.6339894872
[2.     2.     2.     2.     2.     2.     2.     1.8612 1.695  0.3116
 0.1254 0.0069]
entropy correction =  -0.013689333941467994
cycle= 4 E= -160.344528612366  delta_E= -0.0145  |g|= 0.126  |ddm|= 5.07
HOMO:  -0.6427154722391614 LUMO:  -0.6283514575119481
Fermi energy:      -0.6364830844
[2.     2.     2.     2.     2.     2.     2.     1.7872 1.5534 0.3287
 0.3107 0.02  ]
entropy correction =  -0.018047426045740764
cycle= 5 E= -160.351662956739  delta_E= -0.00713  |g|= 0.0482  |ddm|= 3.16
HOMO:  -0.6470362322641277 LUMO:  -0.6355846204985366
Fermi energy:      -0.6418548834
[2.     2.     2.     2.     2.     2.     2.     1.7364 1.4763 0.444
 0.3223 0.021 ]
entropy correction =  -0.01994120244719513
cycle= 6 E= -160.352687345062  delta_E= -0.00102  |g|= 0.0351  |ddm|= 3.11
HOMO:  -0.647552072948815 LUMO:  -0.6352461535035002
Fermi energy:      -0.6421161955
[2.     2.     2.     2.     2.     2.     2.     1.7278 1.4957 0.4039
 0.3511 0.0215]
entropy correction =  -0.01989589696705988
cycle= 7 E= -160.353304156531  delta_E= -0.000617  |g|= 0.0143  |ddm|= 0.782
HOMO:  -0.6466700840899221 LUMO:  -0.6345043196071867
Fermi energy:      -0.6412931166
[2.     2.     2.     2.     2.     2.     2.     1.7343 1.4912 0.4092
 0.3418 0.0235]
entropy correction =  -0.019867829926615423
cycle= 8 E= -160.353442354569  delta_E= -0.000138  |g|= 0.00268  |ddm|= 0.548
HOMO:  -0.6466315613632455 LUMO:  -0.6345344690756797
Fermi energy:      -0.6412902214
[2.     2.     2.     2.     2.     2.     2.     1.7352 1.4885 0.4114
 0.3415 0.0234]
entropy correction =  -0.019883916654835267
cycle= 9 E= -160.353446193076  delta_E= -3.84e-06  |g|= 0.000994  |ddm|= 0.0755
HOMO:  -0.6465961457137258 LUMO:  -0.6344591891643874
Fermi energy:      -0.6412336107
[2.     2.     2.     2.     2.     2.     2.     1.7354 1.4901 0.4101
 0.341  0.0233]
entropy correction =  -0.019860396223268986
cycle= 10 E= -160.353446866833  delta_E= -6.74e-07  |g|= 7.97e-05  |ddm|= 0.0365
HOMO:  -0.6465899945499544 LUMO:  -0.6344554901354357
Fermi energy:      -0.6412277361
[2.     2.     2.     2.     2.     2.     2.     1.7355 1.4901 0.4103
 0.3407 0.0233]
entropy correction =  -0.019858114047204313
cycle= 11 E= -160.353446869909  delta_E= -3.08e-09  |g|= 4.58e-05  |ddm|= 0.00342
HOMO:  -0.6465892646972881 LUMO:  -0.634454939976393
Fermi energy:      -0.6412268966
[2.     2.     2.     2.     2.     2.     2.     1.7355 1.4901 0.4103
 0.3407 0.0233]
entropy correction =  -0.01985848537029074
cycle= 12 E= -160.353446871188  delta_E= -1.28e-09  |g|= 1.25e-05  |ddm|= 0.00121
HOMO:  -0.6465890847721393 LUMO:  -0.6344554495351618
Fermi energy:      -0.6412268977
[2.     2.     2.     2.     2.     2.     2.     1.7355 1.4901 0.4103
 0.3407 0.0233]
entropy correction =  -0.019858516968801167
cycle= 13 E= -160.353446871301  delta_E= -1.13e-10  |g|= 1.86e-06  |ddm|= 0.000304
HOMO:  -0.6465888935495397 LUMO:  -0.6344550867309411
Fermi energy:      -0.6412266009
[2.     2.     2.     2.     2.     2.     2.     1.7355 1.4901 0.4103
 0.3407 0.0233]
entropy correction =  -0.019858381515215864
Extra cycle  E= -160.353446871291  delta_E= 9.63e-12  |g|= 4.56e-06  |ddm|= 0.000242
degenerate subspace detected:
nsub = 2
subspace 1:
35, 36, 
subspace 2:
62, 63, 64, 

 Adding contributions from fluctuation of occupation numbers.
degenerate subspace detected:
nsub = 9
subspace 1:
18, 19, 
subspace 2:
20, 21, 
subspace 3:
29, 30, 
subspace 4:
42, 43, 
subspace 5:
46, 47, 
subspace 6:
53, 54, 
subspace 7:
64, 65, 
subspace 8:
70, 71, 
subspace 9:
72, 73, 

 Adding contributions from fluctuation of occupation numbers.
entropy correction =  -0.019858381515215864
2-norm (grad),       max(grad):
761.2761527908239 ,  126.47857218716227
time of hessian construction : 14.590  (cpu),  0.369  (wall) 
time of hessian construction : 14.080  (cpu),  0.354  (wall) 
f =  289770.6904039989
|umat| =  0.030268192136045747
rks_ao.ne_frozen =  0
Set gradient conv threshold to 3.16228e-05
Initial guess from hcore.
HOMO:  -3.477989343607918 LUMO:  -3.2341082315409317
Fermi energy:      -3.3576280155
[2. 2. 2. 2. 2. 2. 2. 2. 2.]
tot grids = 190200
init E= -8.79012313928152
HOMO:  0.04381416527090571 LUMO:  0.05270173378350479
Fermi energy:       0.0471812393
[2.0000e+00 2.0000e+00 2.0000e+00 2.0000e+00 2.0000e+00 2.0000e+00
 1.8038e+00 1.8036e+00 1.3245e+00 4.9795e-01 4.9742e-01 3.9695e-02
 2.5322e-02 3.8350e-03 1.6202e-03 1.6193e-03 1.9297e-04 1.6773e-04
 1.6756e-04]
entropy correction =  -0.025987605401185825
cycle= 1 E= -5.70144313194124  delta_E= 3.09  |g|=  3.1  |ddm|= 11.1
HOMO:  -1.0300212880719162 LUMO:  -0.8137456292551463
Fermi energy:      -0.9211657531
[2. 2. 2. 2. 2. 2. 2. 2. 2.]
entropy correction =  -4.727371197281329e-10
cycle= 2 E= -9.21047941922538  delta_E= -3.51  |g|=  1.7  |ddm|= 10.7
HOMO:  -0.20433621877372019 LUMO:  -0.17868404599693014
Fermi energy:      -0.1887588087
[2.0000e+00 2.0000e+00 2.0000e+00 2.0000e+00 2.0000e+00 2.0000e+00
 1.9319e+00 1.9151e+00 1.9151e+00 2.3528e-01 1.0484e-03 1.0477e-03
 6.2297e-04]
entropy correction =  -0.008740155415019702
cycle= 3 E= -11.720543265055  delta_E= -2.51  |g|= 0.593  |ddm|= 8.28
HOMO:  -0.08377688144711187 LUMO:  -0.08280081033366879
Fermi energy:      -0.0796323509
[2.0000e+00 2.0000e+00 2.0000e+00 2.0000e+00 2.0000e+00 2.0000e+00
 1.9033e+00 1.3923e+00 1.3922e+00 1.3067e+00 1.8621e-03 1.8424e-03
 1.8424e-03]
entropy correction =  -0.020894194057967025
cycle= 4 E= -11.7406820865122  delta_E= -0.0201  |g|= 0.826  |ddm|= 1.47
HOMO:  -0.10298513813154207 LUMO:  -0.10242481483524216
Fermi energy:      -0.0989602154
[2.0000e+00 2.0000e+00 2.0000e+00 2.0000e+00 2.0000e+00 2.0000e+00
 1.8996e+00 1.3821e+00 1.3821e+00 1.3332e+00 1.0127e-03 9.8821e-04
 9.8806e-04]
entropy correction =  -0.020850723950932026
cycle= 5 E= -11.8721999519957  delta_E= -0.132  |g|= 0.629  |ddm|= 0.388
HOMO:  -0.15880883948476404 LUMO:  -0.15825143196542193
Fermi energy:      -0.1545942329
[2.0000e+00 2.0000e+00 2.0000e+00 2.0000e+00 2.0000e+00 2.0000e+00
 1.8527e+00 1.3982e+00 1.3982e+00 1.3502e+00 2.5443e-04 2.4960e-04
 2.4948e-04]
entropy correction =  -0.021209095691705242
cycle= 6 E= -12.0273282896849  delta_E= -0.155  |g|= 0.138  |ddm|= 0.937
HOMO:  -0.16549780788265517 LUMO:  -0.16545417052265843
Fermi energy:      -0.1613792018
[2.0000e+00 2.0000e+00 2.0000e+00 2.0000e+00 2.0000e+00 2.0000e+00
 1.8327e+00 1.3904e+00 1.3901e+00 1.3863e+00 1.9503e-04 1.9424e-04
 1.8722e-04]
entropy correction =  -0.021374973457597184
cycle= 7 E= -12.0258232218643  delta_E= 0.00151  |g|= 0.146  |ddm|= 0.284
HOMO:  -0.17454160439207606 LUMO:  -0.17452864944165716
Fermi energy:      -0.1704439187
[2.0000e+00 2.0000e+00 2.0000e+00 2.0000e+00 1.9999e+00 1.9999e+00
 1.7936e+00 1.4306e+00 1.3883e+00 1.3872e+00 1.4586e-04 1.4509e-04
 1.3951e-04]
entropy correction =  -0.021643224953209535
cycle= 8 E= -12.0381035106627  delta_E= -0.0123  |g|= 0.0146  |ddm|= 0.253
HOMO:  -0.17560105092174574 LUMO:  -0.17551583378732677
Fermi energy:      -0.1713034892
[2.0000e+00 2.0000e+00 2.0000e+00 2.0000e+00 1.9999e+00 1.9999e+00
 1.7904e+00 1.4062e+00 1.4051e+00 1.3980e+00 1.4319e-04 1.4311e-04
 1.4264e-04]
entropy correction =  -0.021671076867098484
cycle= 9 E= -12.0383084793859  delta_E= -0.000205  |g|= 0.00424  |ddm|= 0.0516
HOMO:  -0.17517893582981775 LUMO:  -0.17515427893448912
Fermi energy:      -0.1709299216
[2.0000e+00 2.0000e+00 2.0000e+00 2.0000e+00 1.9999e+00 1.9999e+00
 1.7980e+00 1.4017e+00 1.4011e+00 1.3990e+00 1.4909e-04 1.4853e-04
 1.4823e-04]
entropy correction =  -0.02162258399839317
cycle= 10 E= -12.0383019457951  delta_E= 6.53e-06  |g|= 0.00587  |ddm|= 0.0149
HOMO:  -0.17527501077763255 LUMO:  -0.17526372965372805
Fermi energy:      -0.1710311922
[2.0000e+00 2.0000e+00 2.0000e+00 2.0000e+00 1.9999e+00 1.9999e+00
 1.7987e+00 1.4007e+00 1.4006e+00 1.3997e+00 1.4940e-04 1.4908e-04
 1.4862e-04]
entropy correction =  -0.02161775497107346
cycle= 11 E= -12.0383226018629  delta_E= -2.07e-05  |g|= 0.000309  |ddm|= 0.00855
HOMO:  -0.17526940960243861 LUMO:  -0.17526621396394546
Fermi energy:      -0.1710321087
[2.0000e+00 2.0000e+00 2.0000e+00 2.0000e+00 1.9999e+00 1.9999e+00
 1.7980e+00 1.4018e+00 1.4001e+00 1.3998e+00 1.4916e-04 1.4884e-04
 1.4803e-04]
entropy correction =  -0.02162222750104946
cycle= 12 E= -12.0383226186513  delta_E= -1.68e-08  |g|= 0.000277  |ddm|= 0.00154
HOMO:  -0.17527569579842397 LUMO:  -0.1752750870958072
Fermi energy:      -0.1710335308
[2.0000e+00 2.0000e+00 2.0000e+00 2.0000e+00 1.9999e+00 1.9999e+00
 1.7979e+00 1.4009e+00 1.4005e+00 1.4004e+00 1.4881e-04 1.4879e-04
 1.4818e-04]
entropy correction =  -0.02162305481217198
cycle= 13 E= -12.0383227009479  delta_E= -8.23e-08  |g|= 2.44e-05  |ddm|= 0.000895
HOMO:  -0.17527447593197615 LUMO:  -0.1752739990368453
Fermi energy:      -0.1710324025
[2.0000e+00 2.0000e+00 2.0000e+00 2.0000e+00 1.9999e+00 1.9999e+00
 1.7979e+00 1.4009e+00 1.4005e+00 1.4004e+00 1.4881e-04 1.4878e-04
 1.4817e-04]
entropy correction =  -0.021623093958985422
cycle= 14 E= -12.0383227016577  delta_E= -7.1e-10  |g|= 7.92e-06  |ddm|= 8.84e-05
HOMO:  -0.1752722678838163 LUMO:  -0.17527188479006592
Fermi energy:      -0.1710303996
[2.0000e+00 2.0000e+00 2.0000e+00 2.0000e+00 1.9999e+00 1.9999e+00
 1.7979e+00 1.4009e+00 1.4005e+00 1.4004e+00 1.4883e-04 1.4880e-04
 1.4819e-04]
entropy correction =  -0.021622899320940317
Extra cycle  E= -12.0383227009651  delta_E= 6.93e-10  |g|= 3.51e-05  |ddm|= 6.7e-05
entropy correction =  -0.021622899320940317
rks_ao.ne_frozen =  0
Set gradient conv threshold to 3.16228e-05
Initial guess from hcore.
HOMO:  -2.4471576853865575 LUMO:  -2.4345757991470904
Fermi energy:      -2.4416841191
[2.     2.     2.     2.     2.     2.     2.     1.4988 1.4985 0.3888
 0.3872 0.1961 0.0306]
tot grids = 190200
init E= -8.55134695537263
HOMO:  0.02289596736869835 LUMO:  0.02290011094541296
Fermi energy:       0.0214256515
[2.0000e+00 2.0000e+00 2.0000e+00 2.0000e+00 2.0000e+00 2.0000e+00
 1.3504e+00 1.3501e+00 8.5402e-01 8.5361e-01 4.5221e-01 3.9210e-01
 2.5544e-01 2.5527e-01 1.8494e-01 1.3566e-02 1.3548e-02 7.4155e-03
 7.4129e-03 4.1946e-03 3.9091e-03 1.3014e-03 2.7890e-04 2.7854e-04]
entropy correction =  -0.04894799948209073
cycle= 1 E= -9.86977558674115  delta_E= -1.32  |g|= 1.65  |ddm|= 12.2
HOMO:  -0.3607337649751543 LUMO:  -0.35387546256916635
Fermi energy:      -0.3595234682
[2.     2.     2.     2.     2.     2.     1.992  1.1228 1.1204 0.4885
 0.4762 0.4757 0.3243]
entropy correction =  -0.03494470751317001
cycle= 2 E= -9.6209980569719  delta_E= 0.249  |g|= 2.11  |ddm|= 10.6
HOMO:  -0.20445206382445677 LUMO:  -0.1928655726818818
Fermi energy:      -0.1984632505
[2.0000e+00 2.0000e+00 2.0000e+00 2.0000e+00 2.0000e+00 2.0000e+00
 1.8301e+00 1.5602e+00 1.5363e+00 4.9219e-01 4.8747e-01 6.6075e-02
 1.8526e-02 8.3491e-03 2.5644e-04 2.5082e-04 1.3048e-04 1.2965e-04]
entropy correction =  -0.02701017315404636
cycle= 3 E= -11.6606512353325  delta_E= -2.04  |g|= 0.434  |ddm|= 4.12
HOMO:  -0.15044565806368282 LUMO:  -0.13969536412402828
Fermi energy:      -0.1451839309
[2.0000e+00 2.0000e+00 2.0000e+00 2.0000e+00 2.0000e+00 2.0000e+00
 1.8856e+00 1.7147e+00 1.4825e+00 5.0034e-01 2.8918e-01 6.0789e-02
 5.0791e-02 1.2733e-02 2.7788e-03 5.3271e-04]
entropy correction =  -0.02483287735548334
cycle= 4 E= -11.2801873694927  delta_E= 0.38  |g|= 0.767  |ddm|= 2.73
HOMO:  -0.1437622161562382 LUMO:  -0.13940909723817238
Fermi energy:      -0.1412319341
[2.0000e+00 2.0000e+00 2.0000e+00 2.0000e+00 2.0000e+00 2.0000e+00
 1.4794e+00 1.3494e+00 1.2478e+00 8.1971e-01 5.9513e-01 3.9987e-01
 9.1660e-02 1.1425e-02 3.2741e-03 1.7607e-03 3.0713e-04 2.4382e-04]
entropy correction =  -0.038954426166593996
cycle= 5 E= -11.6846184359086  delta_E= -0.404  |g|= 0.392  |ddm|= 0.81
HOMO:  -0.13865329537513307 LUMO:  -0.13813842825060513
Fermi energy:      -0.1379703975
[2.0000e+00 2.0000e+00 2.0000e+00 2.0000e+00 2.0000e+00 2.0000e+00
 1.2585e+00 1.1363e+00 1.0682e+00 1.0168e+00 8.1489e-01 5.9311e-01
 9.7109e-02 8.7662e-03 3.9255e-03 1.6332e-03 5.4686e-04 2.4919e-04]
entropy correction =  -0.04257901585143797
cycle= 6 E= -11.7883788854505  delta_E= -0.104  |g|= 0.199  |ddm|= 0.786
HOMO:  -0.13419239721165654 LUMO:  -0.1321569228285472
Fermi energy:      -0.1334297800
[2.0000e+00 2.0000e+00 2.0000e+00 2.0000e+00 2.0000e+00 2.0000e+00
 1.4394e+00 1.3784e+00 1.0761e+00 8.7340e-01 5.9913e-01 5.2452e-01
 9.3162e-02 9.7898e-03 3.6012e-03 1.7224e-03 5.3441e-04 2.6765e-04]
entropy correction =  -0.04017498750065839
cycle= 7 E= -11.7307533466459  delta_E= 0.0576  |g|= 0.308  |ddm|= 0.929
HOMO:  -0.13220950164429193 LUMO:  -0.1306748864927684
Fermi energy:      -0.1315123977
[2.0000e+00 2.0000e+00 2.0000e+00 2.0000e+00 2.0000e+00 2.0000e+00
 1.4675e+00 1.1900e+00 1.0696e+00 9.1644e-01 7.6734e-01 4.7662e-01
 9.6298e-02 9.7151e-03 3.9602e-03 1.6483e-03 6.1462e-04 2.5951e-04]
entropy correction =  -0.04098710105116757
cycle= 8 E= -11.7594127788288  delta_E= -0.0287  |g|= 0.251  |ddm|= 0.799
HOMO:  -0.12408394947476709 LUMO:  -0.1224572501509724
Fermi energy:      -0.1229214930
[2.0000e+00 2.0000e+00 2.0000e+00 2.0000e+00 2.0000e+00 2.0000e+00
 1.2450e+00 1.2027e+00 1.1157e+00 9.5361e-01 7.1556e-01 6.5949e-01
 8.9968e-02 9.3058e-03 4.2420e-03 3.1954e-03 6.2101e-04 5.2790e-04]
entropy correction =  -0.042454397998936716
cycle= 9 E= -11.8011508595109  delta_E= -0.0417  |g|= 0.131  |ddm|= 0.717
HOMO:  -0.12002892617727841 LUMO:  -0.11955255810090475
Fermi energy:      -0.1191222527
[2.0000e+00 2.0000e+00 2.0000e+00 2.0000e+00 2.0000e+00 2.0000e+00
 1.2057e+00 1.1222e+00 1.0904e+00 1.0430e+00 7.3928e-01 6.9202e-01
 8.8899e-02 8.7985e-03 4.5975e-03 3.7540e-03 6.8405e-04 5.9950e-04]
entropy correction =  -0.04288419367080271
cycle= 10 E= -11.8143873584307  delta_E= -0.0132  |g|= 0.0541  |ddm|= 0.279
HOMO:  -0.12032688857265116 LUMO:  -0.11936356959648033
Fermi energy:      -0.1191193608
[2.0000e+00 2.0000e+00 2.0000e+00 2.0000e+00 2.0000e+00 2.0000e+00
 1.1957e+00 1.1467e+00 1.1202e+00 1.0244e+00 7.7198e-01 6.3278e-01
 8.9255e-02 9.5370e-03 4.8385e-03 3.2800e-03 7.7032e-04 5.5421e-04]
entropy correction =  -0.04273875699578122
cycle= 11 E= -11.8105112280651  delta_E= 0.00388  |g|= 0.0818  |ddm|= 0.267
HOMO:  -0.12010854402313309 LUMO:  -0.11971559979096258
Fermi energy:      -0.1193138992
[2.0000e+00 2.0000e+00 2.0000e+00 2.0000e+00 2.0000e+00 2.0000e+00
 1.1972e+00 1.1148e+00 1.0793e+00 1.0401e+00 7.6288e-01 6.9892e-01
 8.7870e-02 9.5689e-03 4.3825e-03 3.6239e-03 7.3755e-04 6.2570e-04]
entropy correction =  -0.043000324843022394
cycle= 12 E= -11.8163537056753  delta_E= -0.00584  |g|= 0.0267  |ddm|= 0.258
HOMO:  -0.12033426636371143 LUMO:  -0.11975178006640039
Fermi energy:      -0.1193838724
[2.0000e+00 2.0000e+00 2.0000e+00 2.0000e+00 2.0000e+00 2.0000e+00
 1.1927e+00 1.1053e+00 1.0948e+00 1.0368e+00 7.4167e-01 7.2230e-01
 8.7622e-02 9.5125e-03 4.1293e-03 3.8640e-03 7.0109e-04 6.6060e-04]
entropy correction =  -0.04301780741831923
cycle= 13 E= -11.81685659118  delta_E= -0.000503  |g|= 0.0164  |ddm|= 0.0905
HOMO:  -0.12055517583268595 LUMO:  -0.1199941785894694
Fermi energy:      -0.1195757843
[2.0000e+00 2.0000e+00 2.0000e+00 2.0000e+00 2.0000e+00 2.0000e+00
 1.1895e+00 1.1039e+00 1.0976e+00 1.0418e+00 7.3307e-01 7.2808e-01
 8.7311e-02 9.3768e-03 4.0088e-03 3.9262e-03 6.8382e-04 6.7205e-04]
entropy correction =  -0.04300334999311223
cycle= 14 E= -11.8169639338121  delta_E= -0.000107  |g|= 0.0127  |ddm|= 0.0384
HOMO:  -0.12062867923013866 LUMO:  -0.12008518796863869
Fermi energy:      -0.1196484323
[2.0000e+00 2.0000e+00 2.0000e+00 2.0000e+00 2.0000e+00 2.0000e+00
 1.1898e+00 1.1000e+00 1.0977e+00 1.0436e+00 7.3316e-01 7.2987e-01
 8.7163e-02 9.3630e-03 3.9807e-03 3.9378e-03 6.7964e-04 6.7330e-04]
entropy correction =  -0.043007928497151494
cycle= 15 E= -11.8170873952475  delta_E= -0.000123  |g|= 0.00573  |ddm|= 0.028
HOMO:  -0.12066312435162958 LUMO:  -0.12012473983597771
Fermi energy:      -0.1196786193
[2.0000e+00 2.0000e+00 2.0000e+00 2.0000e+00 2.0000e+00 2.0000e+00
 1.1886e+00 1.0995e+00 1.0981e+00 1.0446e+00 7.3263e-01 7.3082e-01
 8.7077e-02 9.3576e-03 3.9695e-03 3.9434e-03 6.7813e-04 6.7420e-04]
entropy correction =  -0.043009310427045276
cycle= 16 E= -11.8171172158167  delta_E= -2.98e-05  |g|= 0.00119  |ddm|= 0.0125
HOMO:  -0.12067201841175908 LUMO:  -0.12013198932006053
Fermi energy:      -0.1196809081
[2.0000e+00 2.0000e+00 2.0000e+00 2.0000e+00 2.0000e+00 2.0000e+00
 1.1883e+00 1.0991e+00 1.0988e+00 1.0451e+00 7.3180e-01 7.3122e-01
 8.7067e-02 9.3475e-03 3.9582e-03 3.9523e-03 6.7662e-04 6.7573e-04]
entropy correction =  -0.04300778478541606
cycle= 17 E= -11.817116870561  delta_E= 3.45e-07  |g|= 0.00136  |ddm|= 0.00329
HOMO:  -0.12065880271948011 LUMO:  -0.12011557601675356
Fermi energy:      -0.1196675969
[2.0000e+00 2.0000e+00 2.0000e+00 2.0000e+00 2.0000e+00 2.0000e+00
 1.1886e+00 1.0988e+00 1.0988e+00 1.0448e+00 7.3166e-01 7.3160e-01
 8.7086e-02 9.3538e-03 3.9570e-03 3.9563e-03 6.7639e-04 6.7624e-04]
entropy correction =  -0.04300878420512213
cycle= 18 E= -11.817118624894  delta_E= -1.75e-06  |g|= 9.46e-05  |ddm|= 0.0028
HOMO:  -0.12065878475767988 LUMO:  -0.12011594612048886
Fermi energy:      -0.1196676518
[2.0000e+00 2.0000e+00 2.0000e+00 2.0000e+00 2.0000e+00 2.0000e+00
 1.1886e+00 1.0989e+00 1.0988e+00 1.0448e+00 7.3163e-01 7.3160e-01
 8.7086e-02 9.3533e-03 3.9567e-03 3.9564e-03 6.7632e-04 6.7631e-04]
entropy correction =  -0.043008723274202916
cycle= 19 E= -11.8171186330727  delta_E= -8.18e-09  |g|= 2.89e-05  |ddm|= 0.000212
HOMO:  -0.12065926257834902 LUMO:  -0.12011632950550216
Fermi energy:      -0.1196681694
[2.0000e+00 2.0000e+00 2.0000e+00 2.0000e+00 2.0000e+00 2.0000e+00
 1.1886e+00 1.0989e+00 1.0988e+00 1.0448e+00 7.3163e-01 7.3161e-01
 8.7085e-02 9.3533e-03 3.9566e-03 3.9565e-03 6.7632e-04 6.7628e-04]
entropy correction =  -0.04300874596495774
cycle= 20 E= -11.817118633775  delta_E= -7.02e-10  |g|= 8.91e-06  |ddm|= 5.82e-05
HOMO:  -0.12065894568202094 LUMO:  -0.12011610572666424
Fermi energy:      -0.1196678619
[2.0000e+00 2.0000e+00 2.0000e+00 2.0000e+00 2.0000e+00 2.0000e+00
 1.1886e+00 1.0989e+00 1.0988e+00 1.0448e+00 7.3166e-01 7.3158e-01
 8.7085e-02 9.3533e-03 3.9571e-03 3.9559e-03 6.7637e-04 6.7625e-04]
entropy correction =  -0.043008744267733184
Extra cycle  E= -11.817118620661  delta_E= 1.31e-08  |g|= 0.000117  |ddm|= 0.000253
degenerate subspace detected:
nsub = 32
subspace 1:
2, 3, 
subspace 2:
5, 6, 
subspace 3:
8, 9, 10, 
subspace 4:
11, 12, 13, 
subspace 5:
14, 15, 16, 
subspace 6:
17, 18, 
subspace 7:
21, 22, 
subspace 8:
23, 24, 
subspace 9:
25, 26, 27, 
subspace 10:
29, 30, 
subspace 11:
33, 34, 
subspace 12:
35, 36, 37, 38, 
subspace 13:
40, 41, 
subspace 14:
42, 43, 
subspace 15:
45, 46, 
subspace 16:
49, 50, 
subspace 17:
51, 52, 53, 
subspace 18:
54, 55, 
subspace 19:
57, 58, 
subspace 20:
59, 60, 
subspace 21:
61, 62, 
subspace 22:
65, 66, 
subspace 23:
68, 69, 
subspace 24:
72, 73, 
subspace 25:
74, 75, 76, 
subspace 26:
77, 78, 
subspace 27:
79, 80, 
subspace 28:
82, 83, 
subspace 29:
87, 88, 
subspace 30:
89, 90, 
subspace 31:
92, 93, 
subspace 32:
94, 95, 

 Adding contributions from fluctuation of occupation numbers.
degenerate subspace detected:
nsub = 31
subspace 1:
2, 3, 
subspace 2:
4, 5, 
subspace 3:
7, 8, 9, 10, 
subspace 4:
11, 12, 
subspace 5:
15, 16, 
subspace 6:
17, 18, 
subspace 7:
20, 21, 22, 23, 
subspace 8:
25, 26, 
subspace 9:
30, 31, 
subspace 10:
32, 33, 
subspace 11:
35, 36, 
subspace 12:
37, 38, 
subspace 13:
41, 42, 
subspace 14:
45, 46, 
subspace 15:
48, 49, 
subspace 16:
51, 52, 
subspace 17:
53, 54, 55, 
subspace 18:
57, 58, 
subspace 19:
59, 60, 
subspace 20:
61, 62, 
subspace 21:
65, 66, 
subspace 22:
67, 68, 69, 
subspace 23:
72, 73, 
subspace 24:
74, 75, 
subspace 25:
77, 78, 
subspace 26:
79, 80, 
subspace 27:
82, 83, 
subspace 28:
86, 87, 
subspace 29:
88, 89, 
subspace 30:
93, 94, 
subspace 31:
95, 96, 

 Adding contributions from fluctuation of occupation numbers.
entropy correction =  -0.043008744267733184
2-norm (grad),       max(grad):
2.1115903870583694 ,  0.18301103862100288
time of hessian construction : 31.700  (cpu),  0.834  (wall) 
time of hessian construction : 30.360  (cpu),  0.780  (wall) 
f =  2.2294069813586574
|umat| =  0.03030671156162325
rks_ao.ne_frozen =  0
Set gradient conv threshold to 3.16228e-05
Initial guess from hcore.
HOMO:  -3.4780089225599657 LUMO:  -3.234074827425024
Fermi energy:      -3.3575865593
[2. 2. 2. 2. 2. 2. 2. 2. 2.]
tot grids = 190200
init E= -8.78955018233015
HOMO:  0.04378512368886821 LUMO:  0.05272126571759938
Fermi energy:       0.0471809078
[2.0000e+00 2.0000e+00 2.0000e+00 2.0000e+00 2.0000e+00 2.0000e+00
 1.8039e+00 1.8037e+00 1.3271e+00 4.9646e-01 4.9594e-01 3.9728e-02
 2.5604e-02 3.8186e-03 1.6187e-03 1.6175e-03 1.9291e-04 1.6469e-04
 1.6466e-04]
entropy correction =  -0.025967208033239323
cycle= 1 E= -5.70177948184242  delta_E= 3.09  |g|=  3.1  |ddm|= 11.1
HOMO:  -1.0299977944111338 LUMO:  -0.8136592784632024
Fermi energy:      -0.9211052837
[2. 2. 2. 2. 2. 2. 2. 2. 2.]
entropy correction =  -4.699051700071398e-10
cycle= 2 E= -9.20982768245326  delta_E= -3.51  |g|=  1.7  |ddm|= 10.7
HOMO:  -0.20435154679073692 LUMO:  -0.1786550144792765
Fermi energy:      -0.1887551179
[2.0000e+00 2.0000e+00 2.0000e+00 2.0000e+00 2.0000e+00 2.0000e+00
 1.9323e+00 1.9154e+00 1.9154e+00 2.3423e-01 1.0495e-03 1.0493e-03
 6.2490e-04]
entropy correction =  -0.008712975844520908
cycle= 3 E= -11.7203017139337  delta_E= -2.51  |g|= 0.593  |ddm|= 8.28
HOMO:  -0.08379452724926903 LUMO:  -0.08282946619273292
Fermi energy:      -0.0796504847
[2.0000e+00 2.0000e+00 2.0000e+00 2.0000e+00 2.0000e+00 2.0000e+00
 1.9024e+00 1.3923e+00 1.3922e+00 1.3076e+00 1.8629e-03 1.8444e-03
 1.8441e-03]
entropy correction =  -0.020904838385312534
cycle= 4 E= -11.7400854175816  delta_E= -0.0198  |g|= 0.827  |ddm|= 1.47
HOMO:  -0.10301308923264242 LUMO:  -0.10246181397853074
Fermi energy:      -0.0989879646
[2.0000e+00 2.0000e+00 2.0000e+00 2.0000e+00 2.0000e+00 2.0000e+00
 1.8988e+00 1.3821e+00 1.3821e+00 1.3341e+00 1.0126e-03 9.8861e-04
 9.8845e-04]
entropy correction =  -0.020860303461912554
cycle= 5 E= -11.8718017763021  delta_E= -0.132  |g|= 0.629  |ddm|= 0.388
HOMO:  -0.15827135254882244 LUMO:  -0.15770496233788642
Fermi energy:      -0.1540615728
[2.0000e+00 2.0000e+00 2.0000e+00 2.0000e+00 2.0000e+00 2.0000e+00
 1.8539e+00 1.3986e+00 1.3978e+00 1.3490e+00 2.5390e-04 2.5144e-04
 2.5063e-04]
entropy correction =  -0.021198145157813694
cycle= 6 E= -12.0232798483754  delta_E= -0.151  |g|= 0.16  |ddm|= 0.932
HOMO:  -0.16373284878886357 LUMO:  -0.16354645672736823
Fermi energy:      -0.1595816214
[2.0000e+00 2.0000e+00 2.0000e+00 2.0000e+00 2.0000e+00 2.0000e+00
 1.8366e+00 1.3931e+00 1.3928e+00 1.3769e+00 2.1001e-04 2.0890e-04
 2.0500e-04]
entropy correction =  -0.021345403402804535
cycle= 7 E= -12.027661257807  delta_E= -0.00438  |g|= 0.133  |ddm|= 0.286
HOMO:  -0.1745264375268201 LUMO:  -0.1744945142652697
Fermi energy:      -0.1704123148
[2.0000e+00 2.0000e+00 2.0000e+00 2.0000e+00 1.9999e+00 1.9999e+00
 1.7922e+00 1.4309e+00 1.3897e+00 1.3870e+00 1.4635e-04 1.4487e-04
 1.3935e-04]
entropy correction =  -0.021652766471205016
cycle= 8 E= -12.0378300122095  delta_E= -0.0102  |g|= 0.0145  |ddm|= 0.252
HOMO:  -0.17561363448482 LUMO:  -0.1755256940729939
Fermi energy:      -0.1713145308
[2.0000e+00 2.0000e+00 2.0000e+00 2.0000e+00 1.9999e+00 1.9999e+00
 1.7891e+00 1.4075e+00 1.4052e+00 1.3979e+00 1.4396e-04 1.4294e-04
 1.4241e-04]
entropy correction =  -0.021679533763945567
cycle= 9 E= -12.0380172860555  delta_E= -0.000187  |g|= 0.00641  |ddm|= 0.0529
HOMO:  -0.17522127561870518 LUMO:  -0.17516305023234438
Fermi energy:      -0.1709477758
[2.0000e+00 2.0000e+00 2.0000e+00 2.0000e+00 1.9999e+00 1.9999e+00
 1.7948e+00 1.4035e+00 1.4031e+00 1.3982e+00 1.4757e-04 1.4742e-04
 1.4713e-04]
entropy correction =  -0.021643042563163392
cycle= 10 E= -12.0380126899076  delta_E= 4.6e-06  |g|= 0.0073  |ddm|= 0.0188
HOMO:  -0.17531346343328247 LUMO:  -0.17530246881614148
Fermi energy:      -0.1710711930
[2.0000e+00 2.0000e+00 2.0000e+00 2.0000e+00 1.9999e+00 1.9999e+00
 1.7974e+00 1.4023e+00 1.4005e+00 1.3996e+00 1.4962e-04 1.4918e-04
 1.4836e-04]
entropy correction =  -0.021626643588367994
cycle= 11 E= -12.0380455012151  delta_E= -3.28e-05  |g|= 0.00047  |ddm|= 0.0112
HOMO:  -0.1753121514894439 LUMO:  -0.17528686662787102
Fermi energy:      -0.1710614340
[2.0000e+00 2.0000e+00 2.0000e+00 2.0000e+00 1.9999e+00 1.9999e+00
 1.7970e+00 1.4024e+00 1.4012e+00 1.3991e+00 1.4977e-04 1.4880e-04
 1.4818e-04]
entropy correction =  -0.021629014477237134
cycle= 12 E= -12.038045525781  delta_E= -2.46e-08  |g|= 0.000435  |ddm|= 0.00249
HOMO:  -0.1753126393825221 LUMO:  -0.17531224425356845
Fermi energy:      -0.1710668845
[2.0000e+00 2.0000e+00 2.0000e+00 2.0000e+00 1.9999e+00 1.9999e+00
 1.7966e+00 1.4015e+00 1.4008e+00 1.4007e+00 1.4889e-04 1.4887e-04
 1.4830e-04]
entropy correction =  -0.02163137905123882
cycle= 13 E= -12.0380457260443  delta_E= -2e-07  |g|= 2.97e-05  |ddm|= 0.00137
HOMO:  -0.17531210924723462 LUMO:  -0.17531165194556628
Fermi energy:      -0.1710662948
[2.0000e+00 2.0000e+00 2.0000e+00 2.0000e+00 1.9999e+00 1.9999e+00
 1.7966e+00 1.4015e+00 1.4008e+00 1.4007e+00 1.4888e-04 1.4884e-04
 1.4827e-04]
entropy correction =  -0.021631594574555386
cycle= 14 E= -12.0380457272308  delta_E= -1.19e-09  |g|= 7.41e-06  |ddm|= 0.000113
HOMO:  -0.17531095101170338 LUMO:  -0.17531056995537822
Fermi energy:      -0.1710652599
[2.0000e+00 2.0000e+00 2.0000e+00 2.0000e+00 1.9999e+00 1.9999e+00
 1.7966e+00 1.4015e+00 1.4008e+00 1.4007e+00 1.4889e-04 1.4885e-04
 1.4829e-04]
entropy correction =  -0.02163147372248556
cycle= 15 E= -12.0380457272207  delta_E= 1.02e-11  |g|= 8.92e-06  |ddm|= 2.48e-05
HOMO:  -0.17531101020946174 LUMO:  -0.17531050051771138
Fermi energy:      -0.1710652727
[2.0000e+00 2.0000e+00 2.0000e+00 2.0000e+00 1.9999e+00 1.9999e+00
 1.7966e+00 1.4015e+00 1.4008e+00 1.4007e+00 1.4889e-04 1.4884e-04
 1.4828e-04]
entropy correction =  -0.021631475089039044
Extra cycle  E= -12.0380457258539  delta_E= 1.37e-09  |g|= 4.87e-05  |ddm|= 8.03e-05
entropy correction =  -0.021631475089039044
rks_ao.ne_frozen =  0
Set gradient conv threshold to 3.16228e-05
Initial guess from hcore.
HOMO:  -2.446845831039061 LUMO:  -2.434577574599723
Fermi energy:      -2.4415326815
[2.     2.     2.     2.     2.     2.     2.     1.4866 1.4864 0.3985
 0.397  0.1997 0.0319]
tot grids = 190200
init E= -8.55566313694361
HOMO:  0.022934962235875864 LUMO:  0.02293679701010968
Fermi energy:       0.0215284638
[2.0000e+00 2.0000e+00 2.0000e+00 2.0000e+00 2.0000e+00 2.0000e+00
 1.3466e+00 1.3464e+00 8.6027e-01 8.6009e-01 4.6086e-01 4.0005e-01
 2.4216e-01 2.4200e-01 1.8860e-01 1.3908e-02 1.3897e-02 7.4860e-03
 7.4841e-03 4.3046e-03 4.0010e-03 1.3401e-03 2.8174e-04 2.8148e-04]
entropy correction =  -0.048913545461920775
cycle= 1 E= -9.87690830048701  delta_E= -1.32  |g|= 1.64  |ddm|= 12.1
HOMO:  -0.3596513285022029 LUMO:  -0.35276863908927386
Fermi energy:      -0.3583477363
[2.     2.     2.     2.     2.     2.     1.992  1.1321 1.1296 0.4936
 0.4611 0.4602 0.3314]
entropy correction =  -0.03482548046493188
cycle= 2 E= -9.62742763561243  delta_E= 0.249  |g|=  2.1  |ddm|= 10.5
HOMO:  -0.20391368144734928 LUMO:  -0.19222169649475887
Fermi energy:      -0.1978116577
[2.0000e+00 2.0000e+00 2.0000e+00 2.0000e+00 2.0000e+00 2.0000e+00
 1.8215e+00 1.5564e+00 1.5443e+00 4.9277e-01 4.9031e-01 6.6713e-02
 1.8836e-02 8.4387e-03 2.5376e-04 2.5106e-04 1.3556e-04 1.3503e-04]
entropy correction =  -0.027127280982733332
[...]
 1.3538e-01 9.5179e-03 3.8369e-03 3.8347e-03 7.4065e-04 7.4031e-04]
entropy correction =  -0.04451092625985886
cycle= 27 E= -11.8164983177761  delta_E= -5.08e-09  |g|= 1.01e-05  |ddm|= 0.000271
HOMO:  -0.11750089585810373 LUMO:  -0.11749843779384521
Fermi energy:      -0.1175404898
[2.0000e+00 2.0000e+00 2.0000e+00 2.0000e+00 2.0000e+00 2.0000e+00
 1.0567e+00 1.0564e+00 9.9604e-01 9.9579e-01 8.8189e-01 8.5915e-01
 1.3538e-01 9.5179e-03 3.8369e-03 3.8348e-03 7.4064e-04 7.4031e-04]
entropy correction =  -0.04451092518632702
cycle= 28 E= -11.8164983177744  delta_E= 1.7e-12  |g|= 1.08e-05  |ddm|= 4.37e-05
HOMO:  -0.1175008956917805 LUMO:  -0.11749823807320418
Fermi energy:      -0.1175403609
[2.0000e+00 2.0000e+00 2.0000e+00 2.0000e+00 2.0000e+00 2.0000e+00
 1.0566e+00 1.0564e+00 9.9605e-01 9.9579e-01 8.8189e-01 8.5915e-01
 1.3538e-01 9.5179e-03 3.8370e-03 3.8347e-03 7.4065e-04 7.4031e-04]
entropy correction =  -0.04451093112515722
Extra cycle  E= -11.8164983057371  delta_E= 1.2e-08  |g|= 0.000113  |ddm|= 0.000276
degenerate subspace detected:
nsub = 35
subspace 1:
2, 3, 
subspace 2:
5, 6, 
subspace 3:
8, 9, 
subspace 4:
11, 12, 13, 
subspace 5:
15, 16, 
subspace 6:
17, 18, 
subspace 7:
21, 22, 
subspace 8:
23, 24, 
subspace 9:
25, 26, 
subspace 10:
27, 28, 
subspace 11:
29, 30, 
subspace 12:
31, 32, 
subspace 13:
36, 37, 
subspace 14:
38, 39, 
subspace 15:
40, 41, 42, 43, 
subspace 16:
45, 46, 
subspace 17:
47, 48, 
subspace 18:
49, 50, 
subspace 19:
51, 52, 
subspace 20:
53, 54, 55, 
subspace 21:
57, 58, 
subspace 22:
59, 60, 
subspace 23:
63, 64, 
subspace 24:
66, 67, 
subspace 25:
68, 69, 
subspace 26:
71, 72, 
subspace 27:
73, 74, 
subspace 28:
75, 76, 
subspace 29:
77, 78, 
subspace 30:
79, 80, 
subspace 31:
81, 82, 
subspace 32:
87, 88, 
subspace 33:
89, 90, 
subspace 34:
92, 93, 
subspace 35:
94, 95, 

 Adding contributions from fluctuation of occupation numbers.
degenerate subspace detected:
nsub = 30
subspace 1:
2, 3, 
subspace 2:
4, 5, 
subspace 3:
7, 8, 9, 10, 
subspace 4:
11, 12, 
subspace 5:
15, 16, 
subspace 6:
17, 18, 
subspace 7:
20, 21, 22, 23, 
subspace 8:
26, 27, 
subspace 9:
31, 32, 
subspace 10:
33, 34, 35, 
subspace 11:
36, 37, 
subspace 12:
39, 40, 41, 42, 
subspace 13:
46, 47, 
subspace 14:
48, 49, 
subspace 15:
51, 52, 
subspace 16:
53, 54, 
subspace 17:
57, 58, 
subspace 18:
59, 60, 
subspace 19:
62, 63, 64, 
subspace 20:
66, 67, 
subspace 21:
68, 69, 
subspace 22:
72, 73, 
subspace 23:
74, 75, 
subspace 24:
77, 78, 
subspace 25:
79, 80, 
subspace 26:
81, 82, 
subspace 27:
86, 87, 
subspace 28:
88, 89, 
subspace 29:
93, 94, 
subspace 30:
95, 96, 

 Adding contributions from fluctuation of occupation numbers.
entropy correction =  -0.04451093112515722
2-norm (grad),       max(grad):
2.047435499835073 ,  0.16773920358049402
time of hessian construction : 24.210  (cpu),  0.624  (wall) 
time of hessian construction : 26.560  (cpu),  0.676  (wall) 
f =  2.0959960629924477
========================================
 SCF with converged embedding potential 
========================================
rks_ao.ne_frozen =  0
Set gradient conv threshold to 3.16228e-05
tot grids = 190200
init E= -10.6004249387656
HOMO:  -0.09959906123923669 LUMO:  -0.0990643027017104
Fermi energy:      -0.0951299876
[2.0000e+00 2.0000e+00 2.0000e+00 2.0000e+00 1.9999e+00 1.9999e+00
 1.7859e+00 1.4194e+00 1.4194e+00 1.3743e+00 4.0619e-04 4.0616e-04
 3.6385e-04]
entropy correction =  -0.021728284651576123
cycle= 1 E= -11.9619857619311  delta_E= -1.36  |g|= 0.366  |ddm|= 4.48
HOMO:  -0.23942724658180126 LUMO:  -0.225884269022583
Fermi energy:      -0.2293867696
[2.     2.     2.     2.     1.9994 1.9994 1.8111 1.7633 1.7633 0.6634]
entropy correction =  -0.01681131088264714
cycle= 2 E= -11.8887614859183  delta_E= 0.0732  |g|= 0.439  |ddm|= 1.97
HOMO:  -0.1802900448620692 LUMO:  -0.1794385230673723
Fermi energy:      -0.1755026564
[2.0000e+00 2.0000e+00 2.0000e+00 2.0000e+00 1.9999e+00 1.9999e+00
 1.7345e+00 1.4453e+00 1.4452e+00 1.3744e+00 2.3937e-04 2.2824e-04
 2.2824e-04]
entropy correction =  -0.021981115431190745
cycle= 3 E= -12.0212214808142  delta_E= -0.132  |g|= 0.0117  |ddm|= 1.24
HOMO:  -0.17563999449936346 LUMO:  -0.17414535443853707
Fermi energy:      -0.1706046310
[2.0000e+00 2.0000e+00 2.0000e+00 2.0000e+00 1.9999e+00 1.9999e+00
 1.7298e+00 1.4650e+00 1.4649e+00 1.3400e+00 1.8797e-04 1.8419e-04
 1.8412e-04]
entropy correction =  -0.02195712274748505
cycle= 4 E= -12.0214172787337  delta_E= -0.000196  |g|= 0.00491  |ddm|= 0.0674
HOMO:  -0.1760979320843841 LUMO:  -0.17478994036814413
Fermi energy:      -0.1710576260
[2.0000e+00 2.0000e+00 2.0000e+00 2.0000e+00 1.9999e+00 1.9999e+00
 1.7122e+00 1.4653e+00 1.4653e+00 1.3568e+00 1.9673e-04 1.8839e-04
 1.8832e-04]
entropy correction =  -0.022052743983678205
cycle= 5 E= -12.0213826693117  delta_E= 3.46e-05  |g|= 0.0101  |ddm|= 0.0304
HOMO:  -0.17615591512112846 LUMO:  -0.1748598384258802
Fermi energy:      -0.1711316970
[2.0000e+00 2.0000e+00 2.0000e+00 2.0000e+00 1.9999e+00 1.9999e+00
 1.7151e+00 1.4640e+00 1.4640e+00 1.3565e+00 1.9795e-04 1.8987e-04
 1.8986e-04]
entropy correction =  -0.0220409595108584
cycle= 6 E= -12.021434364479  delta_E= -5.17e-05  |g|= 0.00427  |ddm|= 0.0199
HOMO:  -0.17617701273559952 LUMO:  -0.17487189501496786
Fermi energy:      -0.1711745853
[2.0000e+00 2.0000e+00 2.0000e+00 2.0000e+00 1.9999e+00 1.9999e+00
 1.7212e+00 1.4624e+00 1.4623e+00 1.3538e+00 1.9819e-04 1.9116e-04
 1.9111e-04]
entropy correction =  -0.022013199064810567
cycle= 7 E= -12.0214471676642  delta_E= -1.28e-05  |g|= 0.000529  |ddm|= 0.00831
HOMO:  -0.17618478620641898 LUMO:  -0.1748771378398571
Fermi energy:      -0.1711812584
[2.0000e+00 2.0000e+00 2.0000e+00 2.0000e+00 1.9999e+00 1.9999e+00
 1.7212e+00 1.4624e+00 1.4624e+00 1.3536e+00 1.9808e-04 1.9107e-04
 1.9104e-04]
entropy correction =  -0.02201310911149637
cycle= 8 E= -12.02144732626  delta_E= -1.59e-07  |g|= 0.000135  |ddm|= 0.000855
HOMO:  -0.17620819075681246 LUMO:  -0.1748932923605161
Fermi energy:      -0.1712012080
[2.0000e+00 2.0000e+00 2.0000e+00 2.0000e+00 1.9999e+00 1.9999e+00
 1.7210e+00 1.4627e+00 1.4627e+00 1.3533e+00 1.9776e-04 1.9079e-04
 1.9078e-04]
entropy correction =  -0.022013336587051544
cycle= 9 E= -12.0214473417683  delta_E= -1.55e-08  |g|= 1.03e-05  |ddm|= 0.000489
HOMO:  -0.17620757648570767 LUMO:  -0.1748934271041608
Fermi energy:      -0.1712012300
[2.0000e+00 2.0000e+00 2.0000e+00 2.0000e+00 1.9999e+00 1.9999e+00
 1.7210e+00 1.4627e+00 1.4626e+00 1.3533e+00 1.9777e-04 1.9082e-04
 1.9076e-04]
entropy correction =  -0.02201337253250974
cycle= 10 E= -12.0214473415013  delta_E= 2.67e-10  |g|= 1.87e-05  |ddm|= 8.02e-05
HOMO:  -0.1762065487239279 LUMO:  -0.1748928217455335
Fermi energy:      -0.1712005744
[2.0000e+00 2.0000e+00 2.0000e+00 2.0000e+00 1.9999e+00 1.9999e+00
 1.7210e+00 1.4627e+00 1.4626e+00 1.3533e+00 1.9777e-04 1.9084e-04
 1.9075e-04]
entropy correction =  -0.022013369039358813
Extra cycle  E= -12.0214473393713  delta_E= 2.13e-09  |g|= 4.85e-05  |ddm|= 0.000195
entropy correction =  -0.022013369039358813
rks_ao.ne_frozen =  0
Set gradient conv threshold to 3.16228e-05
tot grids = 190200
init E= -10.322382190022
HOMO:  -0.06296630102760654 LUMO:  -0.060718730840618525
Fermi energy:      -0.0622021216
[2.0000e+00 2.0000e+00 2.0000e+00 2.0000e+00 2.0000e+00 2.0000e+00
 1.1739e+00 1.0763e+00 1.0763e+00 8.5274e-01 8.5259e-01 6.5170e-01
 2.8605e-01 1.6444e-02 6.1981e-03 6.1980e-03 7.8388e-04 7.8381e-04]
entropy correction =  -0.04561387858124823
cycle= 1 E= -11.7985410620276  delta_E= -1.48  |g|= 0.188  |ddm|= 4.44
HOMO:  -0.1335536052509581 LUMO:  -0.13347112692463742
Fermi energy:      -0.1335718376
[2.0000e+00 2.0000e+00 2.0000e+00 2.0000e+00 2.0000e+00 2.0000e+00
 1.0705e+00 1.0693e+00 9.9818e-01 9.8993e-01 9.8374e-01 7.7235e-01
 1.0152e-01 7.3897e-03 2.8776e-03 2.8671e-03 6.3413e-04 6.3213e-04]
entropy correction =  -0.04380318107691357
cycle= 2 E= -11.8145774966475  delta_E= -0.016  |g|= 0.0566  |ddm|= 1.19
HOMO:  -0.11986489361785907 LUMO:  -0.11919431601218107
Fermi energy:      -0.1198243336
[2.0000e+00 2.0000e+00 2.0000e+00 2.0000e+00 2.0000e+00 2.0000e+00
 1.1617e+00 1.1287e+00 1.0041e+00 9.3708e-01 8.5304e-01 7.6694e-01
 1.2985e-01 9.8174e-03 3.7728e-03 3.6162e-03 7.0378e-04 6.9485e-04]
entropy correction =  -0.04401853709787712
cycle= 3 E= -11.806420151752  delta_E= 0.00816  |g|= 0.103  |ddm|= 0.375
HOMO:  -0.1193323474621919 LUMO:  -0.1185219978877223
Fermi energy:      -0.1192332271
[2.0000e+00 2.0000e+00 2.0000e+00 2.0000e+00 2.0000e+00 2.0000e+00
 1.1768e+00 1.1397e+00 1.0099e+00 9.2900e-01 8.3903e-01 7.5551e-01
 1.3123e-01 9.9489e-03 3.8291e-03 3.6118e-03 7.0609e-04 6.9664e-04]
entropy correction =  -0.04394611097833578
cycle= 4 E= -11.8035602731108  delta_E= 0.00286  |g|= 0.117  |ddm|= 0.441
HOMO:  -0.1173362233768155 LUMO:  -0.11728635609610659
Fermi energy:      -0.1173652783
[2.0000e+00 2.0000e+00 2.0000e+00 2.0000e+00 2.0000e+00 2.0000e+00
 1.0628e+00 1.0528e+00 9.9709e-01 9.9211e-01 8.8441e-01 8.5568e-01
 1.3612e-01 9.6847e-03 3.9277e-03 3.8081e-03 7.5723e-04 7.3815e-04]
entropy correction =  -0.04452375717585773
cycle= 5 E= -11.8164550565504  delta_E= -0.0129  |g|= 0.00612  |ddm|= 0.246
HOMO:  -0.11759590488724538 LUMO:  -0.11744700538536233
Fermi energy:      -0.1175657800
[2.0000e+00 2.0000e+00 2.0000e+00 2.0000e+00 2.0000e+00 2.0000e+00
 1.0723e+00 1.0432e+00 1.0030e+00 9.8812e-01 8.8221e-01 8.5685e-01
 1.3560e-01 9.5124e-03 4.0180e-03 3.6529e-03 7.7001e-04 7.1016e-04]
entropy correction =  -0.04450659232080056
cycle= 6 E= -11.8163152426074  delta_E= 0.00014  |g|= 0.013  |ddm|= 0.0576
HOMO:  -0.11757277409633352 LUMO:  -0.11756174050288122
Fermi energy:      -0.1176227895
[2.0000e+00 2.0000e+00 2.0000e+00 2.0000e+00 2.0000e+00 2.0000e+00
 1.0602e+00 1.0571e+00 9.9500e-01 9.9390e-01 8.8156e-01 8.5834e-01
 1.3530e-01 9.4772e-03 3.8500e-03 3.7993e-03 7.4185e-04 7.3391e-04]
entropy correction =  -0.044503734526591336
cycle= 7 E= -11.8163087882756  delta_E= 6.45e-06  |g|= 0.0139  |ddm|= 0.0529
HOMO:  -0.117587126653325 LUMO:  -0.11756606382477544
Fermi energy:      -0.1176215691
[2.0000e+00 2.0000e+00 2.0000e+00 2.0000e+00 2.0000e+00 2.0000e+00
 1.0580e+00 1.0550e+00 9.9656e-01 9.9445e-01 8.8224e-01 8.5991e-01
 1.3526e-01 9.4711e-03 3.8449e-03 3.8041e-03 7.4140e-04 7.3466e-04]
entropy correction =  -0.04450871127005956
cycle= 8 E= -11.8164665788727  delta_E= -0.000158  |g|= 0.00517  |ddm|= 0.0387
HOMO:  -0.11748693701324903 LUMO:  -0.117482972767081
Fermi energy:      -0.1175249025
[2.0000e+00 2.0000e+00 2.0000e+00 2.0000e+00 2.0000e+00 2.0000e+00
 1.0566e+00 1.0563e+00 9.9620e-01 9.9581e-01 8.8166e-01 8.5948e-01
 1.3535e-01 9.5152e-03 3.8370e-03 3.8298e-03 7.4084e-04 7.3962e-04]
entropy correction =  -0.04451063385725451
cycle= 9 E= -11.8164914677367  delta_E= -2.49e-05  |g|= 0.000269  |ddm|= 0.011
HOMO:  -0.11749594656000989 LUMO:  -0.11748856585976351
Fermi energy:      -0.1175338983
[2.0000e+00 2.0000e+00 2.0000e+00 2.0000e+00 2.0000e+00 2.0000e+00
 1.0572e+00 1.0560e+00 9.9620e-01 9.9547e-01 8.8195e-01 8.5916e-01
 1.3532e-01 9.5116e-03 3.8408e-03 3.8267e-03 7.4148e-04 7.3918e-04]
entropy correction =  -0.04450983553108502
cycle= 10 E= -11.8164913800581  delta_E= 8.77e-08  |g|= 0.000387  |ddm|= 0.00181
HOMO:  -0.11749522000586543 LUMO:  -0.11749291321808435
Fermi energy:      -0.1175357320
[2.0000e+00 2.0000e+00 2.0000e+00 2.0000e+00 2.0000e+00 2.0000e+00
 1.0567e+00 1.0565e+00 9.9595e-01 9.9572e-01 8.8193e-01 8.5916e-01
 1.3531e-01 9.5110e-03 3.8345e-03 3.8328e-03 7.4046e-04 7.4018e-04]
entropy correction =  -0.044509692594142634
cycle= 11 E= -11.8164915374161  delta_E= -1.57e-07  |g|= 3.75e-05  |ddm|= 0.00141
HOMO:  -0.11749460959202974 LUMO:  -0.11749198440587996
Fermi energy:      -0.1175344439
[2.0000e+00 2.0000e+00 2.0000e+00 2.0000e+00 2.0000e+00 2.0000e+00
 1.0567e+00 1.0565e+00 9.9602e-01 9.9575e-01 8.8181e-01 8.5923e-01
 1.3532e-01 9.5116e-03 3.8347e-03 3.8324e-03 7.4048e-04 7.4012e-04]
entropy correction =  -0.044509784983019725
cycle= 12 E= -11.8164915365568  delta_E= 8.59e-10  |g|= 5.33e-05  |ddm|= 0.000208
HOMO:  -0.11749386361525074 LUMO:  -0.11749135851774475
Fermi energy:      -0.1175335978
[2.0000e+00 2.0000e+00 2.0000e+00 2.0000e+00 2.0000e+00 2.0000e+00
 1.0567e+00 1.0565e+00 9.9603e-01 9.9578e-01 8.8178e-01 8.5926e-01
 1.3532e-01 9.5116e-03 3.8346e-03 3.8325e-03 7.4047e-04 7.4014e-04]
entropy correction =  -0.044509838089513115
cycle= 13 E= -11.8164915381643  delta_E= -1.61e-09  |g|= 2.9e-05  |ddm|= 0.000115
HOMO:  -0.1174941584400376 LUMO:  -0.11749163638657469
Fermi energy:      -0.1175340564
[2.0000e+00 2.0000e+00 2.0000e+00 2.0000e+00 2.0000e+00 2.0000e+00
 1.0567e+00 1.0565e+00 9.9601e-01 9.9576e-01 8.8182e-01 8.5923e-01
 1.3532e-01 9.5116e-03 3.8346e-03 3.8325e-03 7.4047e-04 7.4014e-04]
entropy correction =  -0.04450980316897844
cycle= 14 E= -11.816491538547  delta_E= -3.83e-10  |g|= 2.14e-05  |ddm|= 0.000111
HOMO:  -0.11749377698464053 LUMO:  -0.11749128529448179
Fermi energy:      -0.1175335535
[2.0000e+00 2.0000e+00 2.0000e+00 2.0000e+00 2.0000e+00 2.0000e+00
 1.0567e+00 1.0565e+00 9.9602e-01 9.9577e-01 8.8180e-01 8.5923e-01
 1.3532e-01 9.5116e-03 3.8347e-03 3.8326e-03 7.4048e-04 7.4015e-04]
entropy correction =  -0.04450981250657926
Extra cycle  E= -11.8164913882251  delta_E= 1.5e-07  |g|= 0.0004  |ddm|= 0.000846
<class 'pydmfet.qcwrap.pyscf_rks_ao.rks_ao'> does not have attributes  vext_1e coredm ne_frozen add_coredm_ext_energy dm_guess
ECP stuttgartdz not found for  GHOST-Al
ECP stuttgartdz not found for  GHOST-Al
<class 'pydmfet.dfet_ao.scf.EmbedSCF'> does not have attributes  Ne
/home/xingz/.local/lib/python3.7/site-packages/pydmfet/oep/oep_optimize.py:61: OptimizeWarning: Unknown solver options: svd_thresh
  options=self.options)
entropy correction =  -0.04450981250657926
scf energies:
EA (no vemb contrib.) =  -35.532890444722916
EB (no vemb contrib.) =  -25.865055200471232
W =  -61.34635447994409
P_imp change (scf - non-scf):  0.4623389173841833
P_bath change (scf - non-scf):  0.7089338018463134
|P_frag + P_env - P_ref| =  2.861822696703953
max element of (P_frag + P_env - P_ref) =  0.16772878788555395
mo orthogonality:
[[ 4.1313e-01  4.9957e-05  5.0559e-05 -2.5687e-05  3.1192e-05 -1.7376e-05
   4.9771e-05 -3.0841e-04  4.4284e-04  2.7072e-04  6.0540e-01  6.5850e-04
  -4.2162e-07 -1.0428e-01  6.1215e-06 -1.6748e-05  2.4176e-05 -2.5013e-05
  -4.9461e-05  3.3887e-06 -2.2666e-06 -1.0552e-05 -1.2101e-05 -3.0428e-09]
 [ 4.4745e-05  8.8902e-02 -4.5535e-01 -3.9060e-06 -2.4744e-05  1.0348e-04
  -9.6740e-03  5.3047e-01 -1.6280e-03  1.4783e-03  2.6813e-04  1.3407e-03
   1.4317e-04 -4.7509e-05  7.8324e-02  3.2567e-01 -8.1927e-06  1.0433e-05
   6.9783e-05  1.7045e-03  6.6629e-04 -1.6567e-05  4.5827e-05 -1.9352e-05]
 [-7.8737e-05  4.5535e-01  8.8889e-02  2.1163e-06 -2.1385e-06  1.5948e-04
   5.3048e-01  9.6473e-03 -1.7156e-03  1.7403e-03 -3.3686e-05  9.8578e-04
   4.8946e-04  6.9194e-05  3.2566e-01 -7.8327e-02  2.9525e-05 -1.4852e-05
   1.3588e-04 -6.6253e-04  1.7210e-03 -7.3475e-05 -1.5415e-05 -1.3543e-05]
 [ 1.1340e-05 -4.1224e-04  8.3638e-05 -6.0636e-05  6.6442e-05  2.2756e-01
  -4.7670e-04 -1.7444e-04 -2.7177e-05 -2.2054e-05  2.0867e-05 -1.0769e-06
   5.1454e-01  4.8465e-05 -3.3840e-04 -6.4272e-06 -1.5442e-06  1.4982e-05
   1.7613e-01 -6.9538e-05  3.6528e-05  2.0131e-05  2.8383e-05 -5.9205e-06]
 [ 2.0442e-06 -3.8054e-06 -1.7608e-05 -9.4115e-03  2.0236e-02 -1.2023e-06
  -1.0302e-03 -1.0934e-03 -5.6466e-01 -2.4536e-01  5.3506e-04  2.7452e-03
  -5.9442e-05  2.7406e-05  2.7175e-05  1.5552e-05 -9.2777e-02  1.4688e-01
   1.4939e-05 -2.3029e-05 -9.8610e-06 -4.4334e-03 -9.0547e-03  4.0332e-06]
 [ 1.2983e-05 -3.5313e-05  2.2957e-05 -2.0227e-02 -9.3213e-03 -1.9897e-06
   2.6211e-03  2.4169e-03  2.4531e-01 -5.6464e-01  8.7182e-05 -7.5305e-03
  -9.7765e-06 -6.6587e-07  8.1352e-06 -2.2627e-05 -1.4684e-01 -9.2823e-02
   3.9241e-06  2.1621e-05 -3.6054e-05 -9.0397e-03  4.4100e-03 -6.2299e-06]
 [ 1.6543e-01  1.8728e-05  1.9164e-05  1.4002e-04  3.9164e-05 -4.2758e-06
   1.6235e-05 -1.4317e-07 -3.4253e-05  5.3447e-05 -9.4266e-03 -7.9763e-06
   1.5630e-05 -3.6044e-01  4.5238e-05 -5.7239e-05 -9.3326e-05 -5.4621e-05
   5.8038e-05  1.4306e-05 -1.3637e-05  6.0160e-05 -1.0197e-05  1.3309e-07]
 [-3.9814e-04 -1.5652e-05  1.9342e-05  4.8155e-01 -2.8729e-01  1.7496e-04
  -1.7897e-04 -1.2390e-04  9.2647e-02  1.4724e-01 -2.2254e-04  5.4555e-04
   1.3020e-05 -1.8202e-04  6.7393e-05 -3.0687e-05 -4.3056e-01  1.8606e-01
  -5.7009e-05  2.2210e-04  7.0927e-04  1.8604e-01  1.0576e-01  7.5845e-05]
 [ 2.9702e-04 -1.9074e-06  4.7672e-05 -2.8729e-01 -4.8156e-01  6.4185e-05
   7.7515e-04  7.6482e-04  1.4728e-01 -9.2653e-02  7.3560e-06 -2.2832e-03
  -4.4596e-06  5.1649e-05 -2.4623e-05 -3.9967e-05  1.8607e-01  4.3053e-01
  -2.0058e-05  9.5212e-04 -3.1918e-04 -1.0576e-01  1.8607e-01 -1.4401e-04]
 [-5.2764e-01 -7.2766e-05 -6.4086e-05 -4.8599e-04 -3.9361e-05  2.1912e-05
  -1.2767e-05  7.1867e-05 -1.1925e-04 -2.4743e-04 -1.3751e-01 -1.4935e-04
   2.1626e-05 -2.7430e-01  2.3807e-05 -4.0742e-05  4.3774e-04  4.5421e-05
   3.5248e-05  1.0071e-05 -1.2843e-05 -1.9011e-04  9.4584e-06 -1.3162e-07]
 [ 3.3677e-06  1.1348e-04 -1.2906e-05  3.9316e-07  4.3909e-07  1.4877e-02
   1.8277e-03  6.6132e-04 -4.1726e-05 -1.6625e-05 -5.6362e-06  4.7464e-06
   4.2798e-01  1.1540e-05 -2.3090e-03 -1.6708e-04 -6.7435e-06  1.4359e-05
  -2.8086e-01 -3.9069e-05  3.5409e-03 -6.1053e-05 -6.2269e-05  7.2864e-06]
 [-8.7367e-07  4.4571e-03 -1.0075e-02  4.8435e-07  1.6128e-06 -7.5460e-05
   4.0185e-02  1.9315e-01 -7.3211e-04  6.7386e-04  9.7007e-05  5.6711e-04
  -2.2026e-03  2.1858e-05 -1.0198e-01 -2.0614e-01  9.0972e-06  1.4057e-05
   1.5258e-03  3.0367e-01  2.0486e-01 -2.9342e-04 -1.4626e-03 -4.8558e-04]
 [ 2.5528e-06 -1.0069e-02 -4.4472e-03  6.8060e-07 -1.7860e-06  1.2898e-04
  -1.9313e-01  4.0217e-02  4.8983e-04 -4.9672e-04  4.0232e-05 -2.4292e-04
   3.6285e-03  5.3852e-05  2.0613e-01 -1.0199e-01 -3.5876e-06 -1.2283e-06
  -2.2118e-03  2.0486e-01 -3.0368e-01  1.2740e-03 -8.2588e-04  1.5060e-04]]
|P_imp-P_imp_0| =  0.4623389173841833
max(P_imp-P_imp_0) =  0.07377369538582573
|P_bath-P_bath_0| =  0.7089338018463134
max(P_bath-P_bath_0) =  0.05099639284500235
 This problem is unconstrained.
RUNNING THE L-BFGS-B CODE

           * * *

Machine precision = 2.220D-16
 N =         4656     M =           10

At X0         0 variables are exactly at the bounds

At iterate    0    f=   2.229640462081E+00    |proj g|=  2.323147561E+00

At iterate    1    f=   2.226487799585E+00    |proj g|=  1.996555737E+00

At iterate    2    f=   2.223492336940E+00    |proj g|=  1.891188056E+00

At iterate    3    f=   2.196024353380E+00    |proj g|=  3.334133179E+00

At iterate    4    f=   2.185983419990E+00    |proj g|=  3.955271647E+00

At iterate    5    f=   2.174374896325E+00    |proj g|=  2.852749438E+00

At iterate    6    f=   2.159102754848E+00    |proj g|=  3.847644361E+00

At iterate    7    f=   2.145354253504E+00    |proj g|=  2.522444624E+00

At iterate    8    f=   2.129601760146E+00    |proj g|=  1.011309536E+01

At iterate    9    f=   2.102302924318E+00    |proj g|=  2.940358501E+00

At iterate   10    f=   2.095996062992E+00    |proj g|=  3.202442210E+00

           * * *

Tit   = total number of iterations
Tnf   = total number of function evaluations
Tnint = total number of segments explored during Cauchy searches
Skip  = number of BFGS updates skipped
Nact  = number of active bounds at final generalized Cauchy point
Projg = norm of the final projected gradient
F     = final function value

           * * *

   N    Tit     Tnf  Tnint  Skip  Nact     Projg        F
 4656     10     14      1     0     0   3.202D+00   2.096D+00
  F =   2.0959960629924477     

STOP: TOTAL NO. of ITERATIONS REACHED LIMIT                 

 Cauchy                time 0.000E+00 seconds.
 Subspace minimization time 0.000E+00 seconds.
 Line search           time 0.000E+00 seconds.

 Total User time 0.000E+00 seconds.

