#INFO: **** input file is /tigress/xingz/pydmfet/examples/research/CBVN/embed/CBVN.py ****
from pydmfet import proj_ao
from pydmfet.qcwrap.pyscf_rks_ao import rks_ao
from pyscf import gto,scf
import numpy as np
from pyscf.tools import molden
from pyscf import lo
from pyscf.lo import iao,orth
from functools import reduce
import math

bas ='stuttgartdz'
ecp = 'stuttgartdz'
temp = 0.005

mol = gto.Mole()
mol.atom = open('CBVN4.xyz').read()
mol.basis = {'H':'ccpvdz', 'B':bas, 'C':bas, 'N':bas}
mol.ecp = ecp
mol.build(max_memory = 24000, verbose=4)


#mf = scf.RKS(mol)
mf = rks_ao(mol,smear_sigma = temp)
mf.xc = "pbe,pbe"
mf.max_cycle = 100

DMguess = None
mf.scf(dm0=DMguess)

#INFO: ******************** input file end ********************


System: uname_result(system='Linux', node='tigercpu.princeton.edu', release='3.10.0-957.27.2.el7.x86_64', version='#1 SMP Tue Jul 30 11:12:20 EDT 2019', machine='x86_64', processor='x86_64')  Threads 40
Python 3.7.0 (default, Jun 28 2018, 13:15:42) 
[GCC 7.2.0]
numpy 1.16.4  scipy 1.4.0.dev0+0f78e0f
Date: Sat Sep  7 16:11:24 2019
PySCF version 1.5
PySCF path  /home/xingz/.local/lib/python3.7/site-packages/pyscf

[CONFIG] conf_file None
[INPUT] verbose = 4
[INPUT] num. atoms = 51
[INPUT] num. electrons = 160
[INPUT] charge = 0
[INPUT] spin (= nelec alpha-beta = 2S) = 0
[INPUT] symmetry False subgroup None
[INPUT] Mole.unit = angstrom
[INPUT]  1 B     -4.955965674024  -2.720510415085  -0.008671094345 AA   -9.365417806651  -5.141019603538  -0.016385993513 Bohr
[INPUT]  2 B      1.026177940961   3.422647861970   0.010625520042 AA    1.939195263486   6.467867079951   0.020079322810 Bohr
[INPUT]  3 B     -6.320397701993  -0.650667228383   0.021921728444 AA  -11.943820655097  -1.229582859874   0.041426062936 Bohr
[INPUT]  4 B     -0.131145776349   1.146290521607  -0.009519146557 AA   -0.247829599694   2.166175145022  -0.017988579931 Bohr
[INPUT]  5 B     -1.062261523256  -0.470569087329  -0.020213043247 AA   -2.007383351617  -0.889246697739  -0.038197115882 Bohr
[INPUT]  6 B     -2.614944568436   5.783828183233   0.062025764997 AA   -4.941529065262  10.929851217850   0.117211708511 Bohr
[INPUT]  7 B     -2.450162582600  -2.614095326480  -0.030036342606 AA   -4.630136241770  -4.939924230553  -0.056760461310 Bohr
[INPUT]  8 B     -0.139808197110   5.642946308621   0.045838685634 AA   -0.264199202507  10.663623058918   0.086622561757 Bohr
[INPUT]  9 B     -3.783147150360  -0.477775732441   0.003080487348 AA   -7.149112003109  -0.902865283278   0.005821277418 Bohr
[INPUT] 10 B     -1.490781990597   3.502785763301   0.028645910981 AA   -2.817169673663   6.619305765665   0.054132926343 Bohr
[INPUT] 11 B     -5.358163482593   1.632035581250   0.036793872502 AA  -10.125461512747   3.084100274108   0.069530342091 Bohr
[INPUT] 12 C     -2.919111014215   1.674926332582   0.019258781898 AA   -5.516320344069   3.165152047402   0.036393823280 Bohr
[INPUT] 13 B     -4.106286289759   3.805786440808   0.049982591592 AA   -7.759756476701   7.191894061710   0.094453409104 Bohr
[INPUT] 14 B      2.480654419066   1.414956448752  -0.026186909549 AA    4.687757461727   2.673880166328  -0.049486087097 Bohr
[INPUT] 15 B      0.016688620826  -2.863824177287  -0.055481850735 AA    0.031536922757  -5.411843363979  -0.104845502774 Bohr
[INPUT] 16 B      1.328924472794  -0.770624429516  -0.043701608025 AA    2.511303293812  -1.456269116685  -0.082584070370 Bohr
[INPUT] 17 B      2.534342714199  -2.941258419378  -0.078670166997 AA    4.789213635622  -5.558172874196  -0.148665069799 Bohr
[INPUT] 18 B      3.811618959433  -0.723261482491  -0.063229619756 AA    7.202915924527  -1.366766118355  -0.119486664298 Bohr
[INPUT] 19 N     -3.691200212662  -3.341921082721  -0.026014598913 AA   -6.975357472868  -6.315315576253  -0.049160467187 Bohr
[INPUT] 20 N      1.032657800250   4.861185044101   0.029146482475 AA    1.951440422868   9.186308374183   0.055078869372 Bohr
[INPUT] 21 N     -5.008776139012  -1.272649998666   0.005639680614 AA   -9.465215121989  -2.404959949908   0.010657451791 Bohr
[INPUT] 22 N     -0.262267683484   2.662649814479   0.009962485982 AA   -0.495614093109   5.031678914989   0.018826370026 Bohr
[INPUT] 23 N     -6.492705218727   0.774155385463   0.037472719476 AA  -12.269434670929   1.462941656381   0.070813176953 Bohr
[INPUT] 24 N     -3.933787585307   5.217602327323   0.064181182698 AA   -7.433781168445   9.859839425535   0.121284857650 Bohr
[INPUT] 25 N     -2.439764977782  -1.118369956313  -0.014955576504 AA   -4.610487616313  -2.113412923373  -0.028261943628 Bohr
[INPUT] 26 N     -1.418529586918   4.961718317637   0.045863349969 AA   -2.680632418868   9.376288727571   0.086669170596 Bohr
[INPUT] 27 N      2.331898558660   2.824104531980  -0.006431936967 AA    4.406649626136   5.336784112585  -0.012154599319 Bohr
[INPUT] 28 N     -1.276829312848  -3.442658457466  -0.049297549054 AA   -2.412857709099  -6.505681625029  -0.093158866325 Bohr
[INPUT] 29 N     -4.058430712573   0.977833191267   0.020206876797 AA   -7.669322542286   1.847836927005   0.038185462979 Bohr
[INPUT] 30 N     -2.887994323814   3.010155727928   0.033049630675 AA   -5.457518321306   5.688369918074   0.062454750494 Bohr
[INPUT] 31 N     -5.344463796284   3.071460965549   0.051086821535 AA  -10.099572857630   5.804220027180   0.096540101275 Bohr
[INPUT] 32 N      1.260542664939   0.659329761651  -0.025783548835 AA    2.382080405064   1.245952675295  -0.048723845818 Bohr
[INPUT] 33 N      1.260037577636  -3.598162039272  -0.074908607728 AA    2.381125928392  -6.799540806030  -0.141556752978 Bohr
[INPUT] 34 N      3.740055351173   0.708490988834  -0.045542741706 AA    7.067680304431   1.338853930618  -0.086063308786 Bohr
[INPUT] 35 N      0.057715083295  -1.429355837232  -0.040103869113 AA    0.109065700684  -2.701091066917  -0.075785329160 Bohr
[INPUT] 36 N      2.581255905755  -1.491569721885  -0.062938299487 AA    4.877866719293  -2.818658270057  -0.118936148777 Bohr
[INPUT] 37 H     -4.712418882209   5.842620578415   0.075724715391 AA   -8.905181071605  11.040952742951   0.143098972950 Bohr
[INPUT] 38 H     -6.210726574909   3.570281090728   0.062592473291 AA  -11.736572261137   6.746853449190   0.118282631980 Bohr
[INPUT] 39 H     -7.424167288381   1.133756528562   0.048116896958 AA  -14.029642877996   2.142489330919   0.090927757215 Bohr
[INPUT] 40 H     -7.286304931694  -1.345861452187   0.023599386367 AA  -13.769120780969  -2.543309546244   0.044596376942 Bohr
[INPUT] 41 H     -5.951061555082  -3.373874200734  -0.006776772497 AA  -11.245876489534  -6.375698218123  -0.012806244029 Bohr
[INPUT] 42 H     -3.647051378933  -4.340261063718  -0.035813680034 AA   -6.891928268401  -8.201904719541  -0.067678046776 Bohr
[INPUT] 43 H     -1.392761109441  -4.435094666177  -0.058446674169 AA   -2.631937053789  -8.381114255594  -0.110448207071 Bohr
[INPUT] 44 H      1.253347263744  -4.598268318420  -0.084891090140 AA    2.368483067449  -8.689467769078  -0.160420910780 Bohr
[INPUT] 45 H      3.542133745701  -3.582837986315  -0.093631883056 AA    6.693662675955  -6.770582542823  -0.176938615503 Bohr
[INPUT] 46 H      4.872475989490  -1.272712470365  -0.078196797391 AA    9.207645168655  -2.405078004309  -0.147770530887 Bohr
[INPUT] 47 H      4.601701790024   1.216363006370  -0.045784915250 AA    8.695956090067   2.298592950093  -0.086520950458 Bohr
[INPUT] 48 H      3.132034493890   3.422645147150  -0.005117494447 AA    5.918687406143   6.467861949684  -0.009670662949 Bohr
[INPUT] 49 H      1.918273837317   5.324246271813   0.029347443297 AA    3.625012184448  10.061367273463   0.055458630287 Bohr
[INPUT] 50 H     -0.074222419310   6.831478731266   0.059596546176 AA   -0.140260044798  12.909623827884   0.112621150243 Bohr
[INPUT] 51 H     -2.498437283487   6.968103977269   0.074465741064 AA   -4.721362205192  13.167808124531   0.140719856274 Bohr

nuclear repulsion = 1563.02869426218
number of shells = 189
number of NR pGTOs = 681
number of NR cGTOs = 363
basis = {'H': 'ccpvdz', 'B': 'stuttgartdz', 'C': 'stuttgartdz', 'N': 'stuttgartdz'}
ecp = stuttgartdz
CPU time:         4.66
rks_ao.ne_frozen =  0


******** <class 'pydmfet.qcwrap.pyscf_rks_ao.rks_ao'> flags ********
method = rks_ao-RKS-RHF
initial guess = minao
damping factor = 0
level shift factor = 0
DIIS = <class 'pyscf.scf.diis.CDIIS'>
DIIS start cycle = 1
DIIS space = 8
SCF tol = 1e-09
SCF gradient tol = None
max. SCF cycles = 100
direct_scf = False
chkfile to save SCF result = /tigress/xingz/pydmfet/examples/research/CBVN/embed/tmpb0oowmsm
max_memory 24000 MB (current use 64 MB)
XC functionals = pbe,pbe
small_rho_cutoff = 1e-07
radial grids: 
    Treutler-Ahlrichs (JCP 102, 346 (M4)) radial grids
    
becke partition: Becke, JCP, 88, 2547 (1988)
pruning grids: <function nwchem_prune at 0x2af643d81950>
grids dens level: 3
symmetrized grids: False
atomic radii adjust function: <function treutler_atomic_radii_adjust at 0x2af643d818c8>
Set gradient conv threshold to 3.16228e-05
tot grids = 646692
init E= -210.372745785646
HOMO:  0.10804822462352077 LUMO:  0.12013082339048184
Fermi energy:       0.1140574622
[2.0000e+00 2.0000e+00 2.0000e+00 2.0000e+00 2.0000e+00 2.0000e+00
 2.0000e+00 2.0000e+00 2.0000e+00 2.0000e+00 2.0000e+00 2.0000e+00
 2.0000e+00 2.0000e+00 2.0000e+00 2.0000e+00 2.0000e+00 2.0000e+00
 2.0000e+00 2.0000e+00 2.0000e+00 2.0000e+00 2.0000e+00 2.0000e+00
 2.0000e+00 2.0000e+00 2.0000e+00 2.0000e+00 2.0000e+00 2.0000e+00
 2.0000e+00 2.0000e+00 2.0000e+00 2.0000e+00 2.0000e+00 2.0000e+00
 2.0000e+00 2.0000e+00 2.0000e+00 2.0000e+00 2.0000e+00 2.0000e+00
 2.0000e+00 2.0000e+00 2.0000e+00 2.0000e+00 2.0000e+00 2.0000e+00
 2.0000e+00 2.0000e+00 2.0000e+00 2.0000e+00 2.0000e+00 2.0000e+00
 2.0000e+00 2.0000e+00 2.0000e+00 2.0000e+00 2.0000e+00 2.0000e+00
 2.0000e+00 2.0000e+00 2.0000e+00 2.0000e+00 2.0000e+00 2.0000e+00
 2.0000e+00 2.0000e+00 2.0000e+00 2.0000e+00 2.0000e+00 2.0000e+00
 2.0000e+00 2.0000e+00 2.0000e+00 2.0000e+00 2.0000e+00 2.0000e+00
 1.9999e+00 1.5377e+00 4.5775e-01 1.5154e-03 1.4642e-03 5.1219e-04
 2.8919e-04 2.3878e-04 2.3027e-04 1.4481e-04]
entropy correction =  -0.010993803611146517
cycle= 1 E= -224.475681322473  delta_E= -14.1  |g|= 8.37  |ddm|= 17.2
HOMO:  -0.45198832180947446 LUMO:  -0.45192165341039403
Fermi energy:      -0.4520857905
[2.     2.     2.     2.     2.     2.     2.     2.     2.     2.
 2.     2.     2.     2.     2.     2.     2.     2.     2.     2.
 2.     2.     2.     2.     2.     2.     2.     2.     2.     2.
 2.     2.     2.     2.     2.     2.     2.     2.     2.     2.
 2.     2.     2.     2.     2.     2.     2.     2.     2.     2.
 2.     2.     2.     2.     2.     2.     2.     2.     2.     2.
 2.     2.     2.     2.     2.     2.     2.     2.     2.     2.
 2.     2.     2.     2.     2.     2.     2.     1.9999 1.9347 0.9903
 0.9836 0.0392 0.0264 0.0102 0.0083 0.0038 0.0036]
entropy correction =  -0.017831892052704055
cycle= 2 E= -183.665783502651  delta_E= 40.8  |g|= 13.1  |ddm|= 22.8
HOMO:  -0.07278820337752302 LUMO:  -0.06776793333195456
Fermi energy:      -0.0720144265
[2.     2.     2.     2.     2.     2.     2.     2.     2.     2.
 2.     2.     2.     2.     2.     2.     2.     2.     2.     2.
 2.     2.     2.     2.     2.     2.     2.     2.     2.     2.
 2.     2.     2.     2.     2.     2.     2.     2.     2.     2.
 2.     2.     2.     2.     2.     2.     2.     2.     2.     2.
 2.     2.     2.     2.     2.     2.     2.     2.     2.     2.
 2.     2.     2.     2.     2.     2.     2.     2.     2.     2.
 2.     2.     2.     1.9999 1.9998 1.9997 1.998  1.9977 1.7641 1.0772
 0.5992 0.2938 0.0846 0.0612 0.0542 0.0503 0.0139 0.0063]
entropy correction =  -0.027178722758866108
cycle= 3 E= -111.294174191226  delta_E= 72.4  |g|= 13.4  |ddm|= 46.5
HOMO:  -0.07452928952945397 LUMO:  -0.06874998030517492
Fermi energy:      -0.0689258569
[2.0000e+00 2.0000e+00 2.0000e+00 2.0000e+00 2.0000e+00 2.0000e+00
 2.0000e+00 2.0000e+00 2.0000e+00 2.0000e+00 2.0000e+00 2.0000e+00
 2.0000e+00 2.0000e+00 2.0000e+00 2.0000e+00 2.0000e+00 2.0000e+00
 2.0000e+00 2.0000e+00 2.0000e+00 2.0000e+00 2.0000e+00 2.0000e+00
 2.0000e+00 2.0000e+00 2.0000e+00 2.0000e+00 2.0000e+00 2.0000e+00
 2.0000e+00 2.0000e+00 2.0000e+00 2.0000e+00 2.0000e+00 2.0000e+00
 2.0000e+00 2.0000e+00 2.0000e+00 2.0000e+00 2.0000e+00 2.0000e+00
 2.0000e+00 2.0000e+00 2.0000e+00 2.0000e+00 2.0000e+00 2.0000e+00
 2.0000e+00 2.0000e+00 2.0000e+00 2.0000e+00 2.0000e+00 2.0000e+00
 2.0000e+00 2.0000e+00 2.0000e+00 2.0000e+00 2.0000e+00 2.0000e+00
 2.0000e+00 2.0000e+00 2.0000e+00 2.0000e+00 2.0000e+00 2.0000e+00
 2.0000e+00 2.0000e+00 2.0000e+00 2.0000e+00 2.0000e+00 2.0000e+00
 2.0000e+00 2.0000e+00 1.9921e+00 1.9915e+00 1.9334e+00 1.9102e+00
 1.6405e+00 1.5082e+00 9.8241e-01 3.6571e-02 4.3888e-03 5.6079e-04]
entropy correction =  -0.022149337050237864
cycle= 4 E= -221.624174158474  delta_E= -110  |g|= 6.92  |ddm|=   43
HOMO:  -0.10498473864673272 LUMO:  -0.08451495315032492
Fermi energy:      -0.0949919220
[2.0000e+00 2.0000e+00 2.0000e+00 2.0000e+00 2.0000e+00 2.0000e+00
 2.0000e+00 2.0000e+00 2.0000e+00 2.0000e+00 2.0000e+00 2.0000e+00
 2.0000e+00 2.0000e+00 2.0000e+00 2.0000e+00 2.0000e+00 2.0000e+00
 2.0000e+00 2.0000e+00 2.0000e+00 2.0000e+00 2.0000e+00 2.0000e+00
 2.0000e+00 2.0000e+00 2.0000e+00 2.0000e+00 2.0000e+00 2.0000e+00
 2.0000e+00 2.0000e+00 2.0000e+00 2.0000e+00 2.0000e+00 2.0000e+00
 2.0000e+00 2.0000e+00 2.0000e+00 2.0000e+00 2.0000e+00 2.0000e+00
 2.0000e+00 2.0000e+00 2.0000e+00 2.0000e+00 2.0000e+00 2.0000e+00
 2.0000e+00 2.0000e+00 2.0000e+00 2.0000e+00 2.0000e+00 2.0000e+00
 2.0000e+00 2.0000e+00 2.0000e+00 2.0000e+00 2.0000e+00 2.0000e+00
 2.0000e+00 2.0000e+00 2.0000e+00 2.0000e+00 2.0000e+00 2.0000e+00
 2.0000e+00 2.0000e+00 2.0000e+00 2.0000e+00 2.0000e+00 2.0000e+00
 2.0000e+00 2.0000e+00 2.0000e+00 2.0000e+00 2.0000e+00 2.0000e+00
 2.0000e+00 1.7613e+00 2.1909e-01 1.9393e-02 1.6074e-04]
entropy correction =  -0.00767023353970062
cycle= 5 E= -241.49785180377  delta_E= -19.9  |g|= 1.79  |ddm|= 5.76
HOMO:  -0.13179667046225138 LUMO:  -0.12795047884035432
Fermi energy:      -0.1278744602
[2.     2.     2.     2.     2.     2.     2.     2.     2.     2.
 2.     2.     2.     2.     2.     2.     2.     2.     2.     2.
 2.     2.     2.     2.     2.     2.     2.     2.     2.     2.
 2.     2.     2.     2.     2.     2.     2.     2.     2.     2.
 2.     2.     2.     2.     2.     2.     2.     2.     2.     2.
 2.     2.     2.     2.     2.     2.     2.     2.     2.     2.
 2.     2.     2.     2.     2.     2.     2.     2.     2.     2.
 2.     2.     2.     2.     2.     2.     2.     1.9998 1.6193 1.3733
 1.0076]
entropy correction =  -0.0180260315014571
cycle= 6 E= -240.925755328508  delta_E= 0.572  |g|= 2.18  |ddm|= 3.88
HOMO:  -0.11342134998982412 LUMO:  -0.08825678075357513
Fermi energy:      -0.1008390724
[2.     2.     2.     2.     2.     2.     2.     2.     2.     2.
 2.     2.     2.     2.     2.     2.     2.     2.     2.     2.
 2.     2.     2.     2.     2.     2.     2.     2.     2.     2.
 2.     2.     2.     2.     2.     2.     2.     2.     2.     2.
 2.     2.     2.     2.     2.     2.     2.     2.     2.     2.
 2.     2.     2.     2.     2.     2.     2.     2.     2.     2.
 2.     2.     2.     2.     2.     2.     2.     2.     2.     2.
 2.     2.     2.     2.     2.     2.     2.     2.     2.     1.8506
 0.1494]
entropy correction =  -0.005313263486449109
cycle= 7 E= -242.671910295835  delta_E= -1.75  |g|= 0.713  |ddm|= 3.17
HOMO:  -0.09710622904114068 LUMO:  -0.06493350708684476
Fermi energy:      -0.0810212280
[2.     2.     2.     2.     2.     2.     2.     2.     2.     2.
 2.     2.     2.     2.     2.     2.     2.     2.     2.     2.
 2.     2.     2.     2.     2.     2.     2.     2.     2.     2.
 2.     2.     2.     2.     2.     2.     2.     2.     2.     2.
 2.     2.     2.     2.     2.     2.     2.     2.     2.     2.
 2.     2.     2.     2.     2.     2.     2.     2.     2.     2.
 2.     2.     2.     2.     2.     2.     2.     2.     2.     2.
 2.     2.     2.     2.     2.     2.     2.     2.     2.     1.9229
 0.077 ]
entropy correction =  -0.003266870225727828
cycle= 8 E= -242.782325755053  delta_E= -0.11  |g|= 0.316  |ddm|= 1.09
HOMO:  -0.10433603451340058 LUMO:  -0.06991530559546584
Fermi energy:      -0.0871263275
[2.    2.    2.    2.    2.    2.    2.    2.    2.    2.    2.    2.
 2.    2.    2.    2.    2.    2.    2.    2.    2.    2.    2.    2.
 2.    2.    2.    2.    2.    2.    2.    2.    2.    2.    2.    2.
 2.    2.    2.    2.    2.    2.    2.    2.    2.    2.    2.    2.
 2.    2.    2.    2.    2.    2.    2.    2.    2.    2.    2.    2.
 2.    2.    2.    2.    2.    2.    2.    2.    2.    2.    2.    2.
 2.    2.    2.    2.    2.    2.    2.    1.938 0.062]
entropy correction =  -0.0027655366146414656
cycle= 9 E= -242.803283356427  delta_E= -0.021  |g|= 0.107  |ddm|= 0.357
HOMO:  -0.09929193850486981 LUMO:  -0.0677758651929116
Fermi energy:      -0.0835352190
[2.     2.     2.     2.     2.     2.     2.     2.     2.     2.
 2.     2.     2.     2.     2.     2.     2.     2.     2.     2.
 2.     2.     2.     2.     2.     2.     2.     2.     2.     2.
 2.     2.     2.     2.     2.     2.     2.     2.     2.     2.
 2.     2.     2.     2.     2.     2.     2.     2.     2.     2.
 2.     2.     2.     2.     2.     2.     2.     2.     2.     2.
 2.     2.     2.     2.     2.     2.     2.     2.     2.     2.
 2.     2.     2.     2.     2.     2.     2.     2.     2.     1.9179
 0.082 ]
entropy correction =  -0.003426586382443877
cycle= 10 E= -242.804993683217  delta_E= -0.00171  |g|= 0.0635  |ddm|= 0.163
HOMO:  -0.10412687752241911 LUMO:  -0.0686205790101605
Fermi energy:      -0.0863749122
[2.     2.     2.     2.     2.     2.     2.     2.     2.     2.
 2.     2.     2.     2.     2.     2.     2.     2.     2.     2.
 2.     2.     2.     2.     2.     2.     2.     2.     2.     2.
 2.     2.     2.     2.     2.     2.     2.     2.     2.     2.
 2.     2.     2.     2.     2.     2.     2.     2.     2.     2.
 2.     2.     2.     2.     2.     2.     2.     2.     2.     2.
 2.     2.     2.     2.     2.     2.     2.     2.     2.     2.
 2.     2.     2.     2.     2.     2.     2.     2.     2.     1.9442
 0.0558]
entropy correction =  -0.0025493808557579805
cycle= 11 E= -242.806102973243  delta_E= -0.00111  |g|= 0.0175  |ddm|= 0.0775
HOMO:  -0.1055691504940592 LUMO:  -0.06888891805857354
Fermi energy:      -0.0872302357
[2.     2.     2.     2.     2.     2.     2.     2.     2.     2.
 2.     2.     2.     2.     2.     2.     2.     2.     2.     2.
 2.     2.     2.     2.     2.     2.     2.     2.     2.     2.
 2.     2.     2.     2.     2.     2.     2.     2.     2.     2.
 2.     2.     2.     2.     2.     2.     2.     2.     2.     2.
 2.     2.     2.     2.     2.     2.     2.     2.     2.     2.
 2.     2.     2.     2.     2.     2.     2.     2.     2.     2.
 2.     2.     2.     2.     2.     2.     2.     2.     2.     1.9502
 0.0498]
entropy correction =  -0.002331728804529392
cycle= 12 E= -242.80616342194  delta_E= -6.04e-05  |g|= 0.0108  |ddm|= 0.0324
HOMO:  -0.10490652861692899 LUMO:  -0.0685515391187539
Fermi energy:      -0.0867302845
[2.     2.     2.     2.     2.     2.     2.     2.     2.     2.
 2.     2.     2.     2.     2.     2.     2.     2.     2.     2.
 2.     2.     2.     2.     2.     2.     2.     2.     2.     2.
 2.     2.     2.     2.     2.     2.     2.     2.     2.     2.
 2.     2.     2.     2.     2.     2.     2.     2.     2.     2.
 2.     2.     2.     2.     2.     2.     2.     2.     2.     2.
 2.     2.     2.     2.     2.     2.     2.     2.     2.     2.
 2.     2.     2.     2.     2.     2.     2.     2.     2.     1.9486
 0.0514]
entropy correction =  -0.0023903885851089476
cycle= 13 E= -242.806189797013  delta_E= -2.64e-05  |g|= 0.00227  |ddm|= 0.0128
HOMO:  -0.10501099232864836 LUMO:  -0.06862168261661376
Fermi energy:      -0.0868175743
[2.     2.     2.     2.     2.     2.     2.     2.     2.     2.
 2.     2.     2.     2.     2.     2.     2.     2.     2.     2.
 2.     2.     2.     2.     2.     2.     2.     2.     2.     2.
 2.     2.     2.     2.     2.     2.     2.     2.     2.     2.
 2.     2.     2.     2.     2.     2.     2.     2.     2.     2.
 2.     2.     2.     2.     2.     2.     2.     2.     2.     2.
 2.     2.     2.     2.     2.     2.     2.     2.     2.     2.
 2.     2.     2.     2.     2.     2.     2.     2.     2.     1.9488
 0.0512]
entropy correction =  -0.002384127390257519
cycle= 14 E= -242.806191035074  delta_E= -1.24e-06  |g|= 0.000763  |ddm|= 0.00344
HOMO:  -0.10495220986738757 LUMO:  -0.06859329718986124
Fermi energy:      -0.0867739970
[2.     2.     2.     2.     2.     2.     2.     2.     2.     2.
 2.     2.     2.     2.     2.     2.     2.     2.     2.     2.
 2.     2.     2.     2.     2.     2.     2.     2.     2.     2.
 2.     2.     2.     2.     2.     2.     2.     2.     2.     2.
 2.     2.     2.     2.     2.     2.     2.     2.     2.     2.
 2.     2.     2.     2.     2.     2.     2.     2.     2.     2.
 2.     2.     2.     2.     2.     2.     2.     2.     2.     2.
 2.     2.     2.     2.     2.     2.     2.     2.     2.     1.9486
 0.0514]
entropy correction =  -0.0023896654976577627
cycle= 15 E= -242.80619114742  delta_E= -1.12e-07  |g|= 0.000357  |ddm|= 0.00129
HOMO:  -0.1049576664359736 LUMO:  -0.06861045952407176
Fermi energy:      -0.0867853034
[2.     2.     2.     2.     2.     2.     2.     2.     2.     2.
 2.     2.     2.     2.     2.     2.     2.     2.     2.     2.
 2.     2.     2.     2.     2.     2.     2.     2.     2.     2.
 2.     2.     2.     2.     2.     2.     2.     2.     2.     2.
 2.     2.     2.     2.     2.     2.     2.     2.     2.     2.
 2.     2.     2.     2.     2.     2.     2.     2.     2.     2.
 2.     2.     2.     2.     2.     2.     2.     2.     2.     2.
 2.     2.     2.     2.     2.     2.     2.     2.     2.     1.9486
 0.0514]
entropy correction =  -0.002391794313509753
cycle= 16 E= -242.806191166921  delta_E= -1.95e-08  |g|= 0.000216  |ddm|= 0.000566
HOMO:  -0.10496848160354731 LUMO:  -0.06860864369603917
Fermi energy:      -0.0867898034
[2.     2.     2.     2.     2.     2.     2.     2.     2.     2.
 2.     2.     2.     2.     2.     2.     2.     2.     2.     2.
 2.     2.     2.     2.     2.     2.     2.     2.     2.     2.
 2.     2.     2.     2.     2.     2.     2.     2.     2.     2.
 2.     2.     2.     2.     2.     2.     2.     2.     2.     2.
 2.     2.     2.     2.     2.     2.     2.     2.     2.     2.
 2.     2.     2.     2.     2.     2.     2.     2.     2.     2.
 2.     2.     2.     2.     2.     2.     2.     2.     2.     1.9486
 0.0513]
entropy correction =  -0.002389493568130036
cycle= 17 E= -242.806191179482  delta_E= -1.26e-08  |g|= 4.27e-05  |ddm|= 0.000252
HOMO:  -0.10497171154257659 LUMO:  -0.06860630182699864
Fermi energy:      -0.0867902482
[2.     2.     2.     2.     2.     2.     2.     2.     2.     2.
 2.     2.     2.     2.     2.     2.     2.     2.     2.     2.
 2.     2.     2.     2.     2.     2.     2.     2.     2.     2.
 2.     2.     2.     2.     2.     2.     2.     2.     2.     2.
 2.     2.     2.     2.     2.     2.     2.     2.     2.     2.
 2.     2.     2.     2.     2.     2.     2.     2.     2.     2.
 2.     2.     2.     2.     2.     2.     2.     2.     2.     2.
 2.     2.     2.     2.     2.     2.     2.     2.     2.     1.9487
 0.0513]
entropy correction =  -0.0023884800617162785
cycle= 18 E= -242.806191179748  delta_E= -2.67e-10  |g|= 2.97e-05  |ddm|= 0.000102
HOMO:  -0.10496622120463892 LUMO:  -0.06860786713840858
Fermi energy:      -0.0867882849
[2.     2.     2.     2.     2.     2.     2.     2.     2.     2.
 2.     2.     2.     2.     2.     2.     2.     2.     2.     2.
 2.     2.     2.     2.     2.     2.     2.     2.     2.     2.
 2.     2.     2.     2.     2.     2.     2.     2.     2.     2.
 2.     2.     2.     2.     2.     2.     2.     2.     2.     2.
 2.     2.     2.     2.     2.     2.     2.     2.     2.     2.
 2.     2.     2.     2.     2.     2.     2.     2.     2.     2.
 2.     2.     2.     2.     2.     2.     2.     2.     2.     1.9486
 0.0514]
entropy correction =  -0.002389763867869979
Extra cycle  E= -242.806191178946  delta_E= 8.02e-10  |g|= 6.08e-05  |ddm|= 0.000129
converged SCF energy = -242.806191178946
ECP stuttgartdz not found for  H
<class 'pydmfet.qcwrap.pyscf_rks_ao.rks_ao'> does not have attributes  ne_frozen coredm dm_guess add_coredm_ext_energy vext_1e
