[Molden Format]
made by pyscf v[1.5]
[Atoms] (AU)
O   1   8     1.15412188468624    -1.99899953771804     2.45664396193458
O   2   8     1.15413133331687     1.99900898634866     2.45664396193458
C   3   6     0.00000000000000    -2.66532641787030     0.00000000000000
C   4   6    -2.30824376937249    -1.33267265756577     0.00000000000000
C   5   6    -2.30824376937249     1.33267265756577     0.00000000000000
C   6   6     0.00000000000000     2.66532641787030     0.00000000000000
C   7   6     2.30824376937249     1.33267265756577     0.00000000000000
C   8   6     2.30824376937249    -1.33267265756577     0.00000000000000
C   9   6     0.00000000000000    -5.33067173300185     0.00000000000000
C   10   6    -4.61648753874497    -2.66532641787030     0.00000000000000
C   11   6    -4.61648753874497     2.66532641787030     0.00000000000000
C   12   6     0.00000000000000     5.33067173300185     0.00000000000000
C   13   6     4.61648753874497     2.66532641787030     0.00000000000000
C   14   6     4.61648753874497    -2.66532641787030     0.00000000000000
C   15   6     6.92539271226106     1.33441120560037     0.00000000000000
C   16   6     6.92539271226106    -1.33441120560037     0.00000000000000
C   17   6     4.61832057308580    -5.33036937682192     0.00000000000000
C   18   6     4.61832057308580     5.33036937682192     0.00000000000000
C   19   6     2.30707213917526     6.66476168516104     0.00000000000000
C   20   6    -2.30707213917526     6.66476168516104     0.00000000000000
C   21   6     2.30707213917526    -6.66476168516104     0.00000000000000
C   22   6    -4.61832057308580     5.33036937682192     0.00000000000000
C   23   6    -2.30707213917526    -6.66476168516104     0.00000000000000
C   24   6    -6.92539271226106     1.33441120560037     0.00000000000000
C   25   6    -4.61832057308580    -5.33036937682192     0.00000000000000
C   26   6    -6.92539271226106    -1.33441120560037     0.00000000000000
H   27   1     2.30641073503166     8.61495904571219     0.00000000000000
H   28   1    -2.30641073503166     8.61495904571219     0.00000000000000
H   29   1     2.30641073503166    -8.61495904571219     0.00000000000000
H   30   1    -6.30756565309575     6.30488224199887     0.00000000000000
H   31   1    -2.30641073503166    -8.61495904571219     0.00000000000000
H   32   1    -8.61397638812741     2.31009570097456     0.00000000000000
H   33   1    -6.30756565309575    -6.30488224199887     0.00000000000000
H   34   1    -8.61397638812741    -2.31009570097456     0.00000000000000
H   35   1     8.61397638812741     2.31009570097456     0.00000000000000
H   36   1     8.61397638812741    -2.31009570097456     0.00000000000000
H   37   1     6.30756565309575    -6.30488224199887     0.00000000000000
H   38   1     6.30756565309575     6.30488224199887     0.00000000000000
[GTO]
1 0
 s    6 1.00
             5484.6717   0.001831099805527
             825.23495   0.013950098518422
             188.04696    0.06844509273075
               52.9645    0.23271427528445
              16.89757    0.47019295006289
             5.7996353    0.35852086192309
 s    3 1.00
             15.539616   -0.11077750382508
             3.5999336   -0.14802630511126
             1.0137618     1.1307670390447
 s    1 1.00
             0.2700058                   1
 p    3 1.00
             15.539616   0.070874299543311
             3.5999336    0.33975279781076
             1.0137618    0.72715859531445
 p    1 1.00
             0.2700058                   1
 d    1 1.00
                   0.8                   1

2 0
 s    6 1.00
             5484.6717   0.001831099805527
             825.23495   0.013950098518422
             188.04696    0.06844509273075
               52.9645    0.23271427528445
              16.89757    0.47019295006289
             5.7996353    0.35852086192309
 s    3 1.00
             15.539616   -0.11077750382508
             3.5999336   -0.14802630511126
             1.0137618     1.1307670390447
 s    1 1.00
             0.2700058                   1
 p    3 1.00
             15.539616   0.070874299543311
             3.5999336    0.33975279781076
             1.0137618    0.72715859531445
 p    1 1.00
             0.2700058                   1
 d    1 1.00
                   0.8                   1

3 0
 s    6 1.00
             3047.5249  0.0018347001629433
             457.36951    0.01403730124668
             103.94869   0.068842606114048
             29.210155    0.23218442062076
              9.286663    0.46794134155879
              3.163927    0.36231203217765
 s    3 1.00
             7.8682724   -0.11933240861517
             1.8812885   -0.16085421161283
             0.5442493     1.1434564825515
 s    1 1.00
             0.1687144                   1
 p    3 1.00
             7.8682724   0.068999095584993
             1.8812885    0.31642397975315
             0.5442493    0.74430825237435
 p    1 1.00
             0.1687144                   1
 d    1 1.00
                   0.8                   1

4 0
 s    6 1.00
             3047.5249  0.0018347001629433
             457.36951    0.01403730124668
             103.94869   0.068842606114048
             29.210155    0.23218442062076
              9.286663    0.46794134155879
              3.163927    0.36231203217765
 s    3 1.00
             7.8682724   -0.11933240861517
             1.8812885   -0.16085421161283
             0.5442493     1.1434564825515
 s    1 1.00
             0.1687144                   1
 p    3 1.00
             7.8682724   0.068999095584993
             1.8812885    0.31642397975315
             0.5442493    0.74430825237435
 p    1 1.00
             0.1687144                   1
 d    1 1.00
                   0.8                   1

5 0
 s    6 1.00
             3047.5249  0.0018347001629433
             457.36951    0.01403730124668
             103.94869   0.068842606114048
             29.210155    0.23218442062076
              9.286663    0.46794134155879
              3.163927    0.36231203217765
 s    3 1.00
             7.8682724   -0.11933240861517
             1.8812885   -0.16085421161283
             0.5442493     1.1434564825515
 s    1 1.00
             0.1687144                   1
 p    3 1.00
             7.8682724   0.068999095584993
             1.8812885    0.31642397975315
             0.5442493    0.74430825237435
 p    1 1.00
             0.1687144                   1
 d    1 1.00
                   0.8                   1

6 0
 s    6 1.00
             3047.5249  0.0018347001629433
             457.36951    0.01403730124668
             103.94869   0.068842606114048
             29.210155    0.23218442062076
              9.286663    0.46794134155879
              3.163927    0.36231203217765
 s    3 1.00
             7.8682724   -0.11933240861517
             1.8812885   -0.16085421161283
             0.5442493     1.1434564825515
 s    1 1.00
             0.1687144                   1
 p    3 1.00
             7.8682724   0.068999095584993
             1.8812885    0.31642397975315
             0.5442493    0.74430825237435
 p    1 1.00
             0.1687144                   1
 d    1 1.00
                   0.8                   1

7 0
 s    6 1.00
             3047.5249  0.0018347001629433
             457.36951    0.01403730124668
             103.94869   0.068842606114048
             29.210155    0.23218442062076
              9.286663    0.46794134155879
              3.163927    0.36231203217765
 s    3 1.00
             7.8682724   -0.11933240861517
             1.8812885   -0.16085421161283
             0.5442493     1.1434564825515
 s    1 1.00
             0.1687144                   1
 p    3 1.00
             7.8682724   0.068999095584993
             1.8812885    0.31642397975315
             0.5442493    0.74430825237435
 p    1 1.00
             0.1687144                   1
 d    1 1.00
                   0.8                   1

8 0
 s    6 1.00
             3047.5249  0.0018347001629433
             457.36951    0.01403730124668
             103.94869   0.068842606114048
             29.210155    0.23218442062076
              9.286663    0.46794134155879
              3.163927    0.36231203217765
 s    3 1.00
             7.8682724   -0.11933240861517
             1.8812885   -0.16085421161283
             0.5442493     1.1434564825515
 s    1 1.00
             0.1687144                   1
 p    3 1.00
             7.8682724   0.068999095584993
             1.8812885    0.31642397975315
             0.5442493    0.74430825237435
 p    1 1.00
             0.1687144                   1
 d    1 1.00
                   0.8                   1

9 0
 s    6 1.00
             3047.5249  0.0018347001629433
             457.36951    0.01403730124668
             103.94869   0.068842606114048
             29.210155    0.23218442062076
              9.286663    0.46794134155879
              3.163927    0.36231203217765
 s    3 1.00
             7.8682724   -0.11933240861517
             1.8812885   -0.16085421161283
             0.5442493     1.1434564825515
 s    1 1.00
             0.1687144                   1
 p    3 1.00
             7.8682724   0.068999095584993
             1.8812885    0.31642397975315
             0.5442493    0.74430825237435
 p    1 1.00
             0.1687144                   1
 d    1 1.00
                   0.8                   1

10 0
 s    6 1.00
             3047.5249  0.0018347001629433
             457.36951    0.01403730124668
             103.94869   0.068842606114048
             29.210155    0.23218442062076
              9.286663    0.46794134155879
              3.163927    0.36231203217765
 s    3 1.00
             7.8682724   -0.11933240861517
             1.8812885   -0.16085421161283
             0.5442493     1.1434564825515
 s    1 1.00
             0.1687144                   1
 p    3 1.00
             7.8682724   0.068999095584993
             1.8812885    0.31642397975315
             0.5442493    0.74430825237435
 p    1 1.00
             0.1687144                   1
 d    1 1.00
                   0.8                   1

11 0
 s    6 1.00
             3047.5249  0.0018347001629433
             457.36951    0.01403730124668
             103.94869   0.068842606114048
             29.210155    0.23218442062076
              9.286663    0.46794134155879
              3.163927    0.36231203217765
 s    3 1.00
             7.8682724   -0.11933240861517
             1.8812885   -0.16085421161283
             0.5442493     1.1434564825515
 s    1 1.00
             0.1687144                   1
 p    3 1.00
             7.8682724   0.068999095584993
             1.8812885    0.31642397975315
             0.5442493    0.74430825237435
 p    1 1.00
             0.1687144                   1
 d    1 1.00
                   0.8                   1

12 0
 s    6 1.00
             3047.5249  0.0018347001629433
             457.36951    0.01403730124668
             103.94869   0.068842606114048
             29.210155    0.23218442062076
              9.286663    0.46794134155879
              3.163927    0.36231203217765
 s    3 1.00
             7.8682724   -0.11933240861517
             1.8812885   -0.16085421161283
             0.5442493     1.1434564825515
 s    1 1.00
             0.1687144                   1
 p    3 1.00
             7.8682724   0.068999095584993
             1.8812885    0.31642397975315
             0.5442493    0.74430825237435
 p    1 1.00
             0.1687144                   1
 d    1 1.00
                   0.8                   1

13 0
 s    6 1.00
             3047.5249  0.0018347001629433
             457.36951    0.01403730124668
             103.94869   0.068842606114048
             29.210155    0.23218442062076
              9.286663    0.46794134155879
              3.163927    0.36231203217765
 s    3 1.00
             7.8682724   -0.11933240861517
             1.8812885   -0.16085421161283
             0.5442493     1.1434564825515
 s    1 1.00
             0.1687144                   1
 p    3 1.00
             7.8682724   0.068999095584993
             1.8812885    0.31642397975315
             0.5442493    0.74430825237435
 p    1 1.00
             0.1687144                   1
 d    1 1.00
                   0.8                   1

14 0
 s    6 1.00
             3047.5249  0.0018347001629433
             457.36951    0.01403730124668
             103.94869   0.068842606114048
             29.210155    0.23218442062076
              9.286663    0.46794134155879
              3.163927    0.36231203217765
 s    3 1.00
             7.8682724   -0.11933240861517
             1.8812885   -0.16085421161283
             0.5442493     1.1434564825515
 s    1 1.00
             0.1687144                   1
 p    3 1.00
             7.8682724   0.068999095584993
             1.8812885    0.31642397975315
             0.5442493    0.74430825237435
 p    1 1.00
             0.1687144                   1
 d    1 1.00
                   0.8                   1

15 0
 s    6 1.00
             3047.5249  0.0018347001629433
             457.36951    0.01403730124668
             103.94869   0.068842606114048
             29.210155    0.23218442062076
              9.286663    0.46794134155879
              3.163927    0.36231203217765
 s    3 1.00
             7.8682724   -0.11933240861517
             1.8812885   -0.16085421161283
             0.5442493     1.1434564825515
 s    1 1.00
             0.1687144                   1
 p    3 1.00
             7.8682724   0.068999095584993
             1.8812885    0.31642397975315
             0.5442493    0.74430825237435
 p    1 1.00
             0.1687144                   1
 d    1 1.00
                   0.8                   1

16 0
 s    6 1.00
             3047.5249  0.0018347001629433
             457.36951    0.01403730124668
             103.94869   0.068842606114048
             29.210155    0.23218442062076
              9.286663    0.46794134155879
              3.163927    0.36231203217765
 s    3 1.00
             7.8682724   -0.11933240861517
             1.8812885   -0.16085421161283
             0.5442493     1.1434564825515
 s    1 1.00
             0.1687144                   1
 p    3 1.00
             7.8682724   0.068999095584993
             1.8812885    0.31642397975315
             0.5442493    0.74430825237435
 p    1 1.00
             0.1687144                   1
 d    1 1.00
                   0.8                   1

17 0
 s    6 1.00
             3047.5249  0.0018347001629433
             457.36951    0.01403730124668
             103.94869   0.068842606114048
             29.210155    0.23218442062076
              9.286663    0.46794134155879
              3.163927    0.36231203217765
 s    3 1.00
             7.8682724   -0.11933240861517
             1.8812885   -0.16085421161283
             0.5442493     1.1434564825515
 s    1 1.00
             0.1687144                   1
 p    3 1.00
             7.8682724   0.068999095584993
             1.8812885    0.31642397975315
             0.5442493    0.74430825237435
 p    1 1.00
             0.1687144                   1
 d    1 1.00
                   0.8                   1

18 0
 s    6 1.00
             3047.5249  0.0018347001629433
             457.36951    0.01403730124668
             103.94869   0.068842606114048
             29.210155    0.23218442062076
              9.286663    0.46794134155879
              3.163927    0.36231203217765
 s    3 1.00
             7.8682724   -0.11933240861517
             1.8812885   -0.16085421161283
             0.5442493     1.1434564825515
 s    1 1.00
             0.1687144                   1
 p    3 1.00
             7.8682724   0.068999095584993
             1.8812885    0.31642397975315
             0.5442493    0.74430825237435
 p    1 1.00
             0.1687144                   1
 d    1 1.00
                   0.8                   1

19 0
 s    6 1.00
             3047.5249  0.0018347001629433
             457.36951    0.01403730124668
             103.94869   0.068842606114048
             29.210155    0.23218442062076
              9.286663    0.46794134155879
              3.163927    0.36231203217765
 s    3 1.00
             7.8682724   -0.11933240861517
             1.8812885   -0.16085421161283
             0.5442493     1.1434564825515
 s    1 1.00
             0.1687144                   1
 p    3 1.00
             7.8682724   0.068999095584993
             1.8812885    0.31642397975315
             0.5442493    0.74430825237435
 p    1 1.00
             0.1687144                   1
 d    1 1.00
                   0.8                   1

20 0
 s    6 1.00
             3047.5249  0.0018347001629433
             457.36951    0.01403730124668
             103.94869   0.068842606114048
             29.210155    0.23218442062076
              9.286663    0.46794134155879
              3.163927    0.36231203217765
 s    3 1.00
             7.8682724   -0.11933240861517
             1.8812885   -0.16085421161283
             0.5442493     1.1434564825515
 s    1 1.00
             0.1687144                   1
 p    3 1.00
             7.8682724   0.068999095584993
             1.8812885    0.31642397975315
             0.5442493    0.74430825237435
 p    1 1.00
             0.1687144                   1
 d    1 1.00
                   0.8                   1

21 0
 s    6 1.00
             3047.5249  0.0018347001629433
             457.36951    0.01403730124668
             103.94869   0.068842606114048
             29.210155    0.23218442062076
              9.286663    0.46794134155879
              3.163927    0.36231203217765
 s    3 1.00
             7.8682724   -0.11933240861517
             1.8812885   -0.16085421161283
             0.5442493     1.1434564825515
 s    1 1.00
             0.1687144                   1
 p    3 1.00
             7.8682724   0.068999095584993
             1.8812885    0.31642397975315
             0.5442493    0.74430825237435
 p    1 1.00
             0.1687144                   1
 d    1 1.00
                   0.8                   1

22 0
 s    6 1.00
             3047.5249  0.0018347001629433
             457.36951    0.01403730124668
             103.94869   0.068842606114048
             29.210155    0.23218442062076
              9.286663    0.46794134155879
              3.163927    0.36231203217765
 s    3 1.00
             7.8682724   -0.11933240861517
             1.8812885   -0.16085421161283
             0.5442493     1.1434564825515
 s    1 1.00
             0.1687144                   1
 p    3 1.00
             7.8682724   0.068999095584993
             1.8812885    0.31642397975315
             0.5442493    0.74430825237435
 p    1 1.00
             0.1687144                   1
 d    1 1.00
                   0.8                   1

23 0
 s    6 1.00
             3047.5249  0.0018347001629433
             457.36951    0.01403730124668
             103.94869   0.068842606114048
             29.210155    0.23218442062076
              9.286663    0.46794134155879
              3.163927    0.36231203217765
 s    3 1.00
             7.8682724   -0.11933240861517
             1.8812885   -0.16085421161283
             0.5442493     1.1434564825515
 s    1 1.00
             0.1687144                   1
 p    3 1.00
             7.8682724   0.068999095584993
             1.8812885    0.31642397975315
             0.5442493    0.74430825237435
 p    1 1.00
             0.1687144                   1
 d    1 1.00
                   0.8                   1

24 0
 s    6 1.00
             3047.5249  0.0018347001629433
             457.36951    0.01403730124668
             103.94869   0.068842606114048
             29.210155    0.23218442062076
              9.286663    0.46794134155879
              3.163927    0.36231203217765
 s    3 1.00
             7.8682724   -0.11933240861517
             1.8812885   -0.16085421161283
             0.5442493     1.1434564825515
 s    1 1.00
             0.1687144                   1
 p    3 1.00
             7.8682724   0.068999095584993
             1.8812885    0.31642397975315
             0.5442493    0.74430825237435
 p    1 1.00
             0.1687144                   1
 d    1 1.00
                   0.8                   1

25 0
 s    6 1.00
             3047.5249  0.0018347001629433
             457.36951    0.01403730124668
             103.94869   0.068842606114048
             29.210155    0.23218442062076
              9.286663    0.46794134155879
              3.163927    0.36231203217765
 s    3 1.00
             7.8682724   -0.11933240861517
             1.8812885   -0.16085421161283
             0.5442493     1.1434564825515
 s    1 1.00
             0.1687144                   1
 p    3 1.00
             7.8682724   0.068999095584993
             1.8812885    0.31642397975315
             0.5442493    0.74430825237435
 p    1 1.00
             0.1687144                   1
 d    1 1.00
                   0.8                   1

26 0
 s    6 1.00
             3047.5249  0.0018347001629433
             457.36951    0.01403730124668
             103.94869   0.068842606114048
             29.210155    0.23218442062076
              9.286663    0.46794134155879
              3.163927    0.36231203217765
 s    3 1.00
             7.8682724   -0.11933240861517
             1.8812885   -0.16085421161283
             0.5442493     1.1434564825515
 s    1 1.00
             0.1687144                   1
 p    3 1.00
             7.8682724   0.068999095584993
             1.8812885    0.31642397975315
             0.5442493    0.74430825237435
 p    1 1.00
             0.1687144                   1
 d    1 1.00
                   0.8                   1

27 0
 s    3 1.00
             18.731137    0.03349459952309
             2.8253937    0.23472694665786
             0.6401217    0.81375731841339
 s    1 1.00
             0.1612778                   1

28 0
 s    3 1.00
             18.731137    0.03349459952309
             2.8253937    0.23472694665786
             0.6401217    0.81375731841339
 s    1 1.00
             0.1612778                   1

29 0
 s    3 1.00
             18.731137    0.03349459952309
             2.8253937    0.23472694665786
             0.6401217    0.81375731841339
 s    1 1.00
             0.1612778                   1

30 0
 s    3 1.00
             18.731137    0.03349459952309
             2.8253937    0.23472694665786
             0.6401217    0.81375731841339
 s    1 1.00
             0.1612778                   1

31 0
 s    3 1.00
             18.731137    0.03349459952309
             2.8253937    0.23472694665786
             0.6401217    0.81375731841339
 s    1 1.00
             0.1612778                   1

32 0
 s    3 1.00
             18.731137    0.03349459952309
             2.8253937    0.23472694665786
             0.6401217    0.81375731841339
 s    1 1.00
             0.1612778                   1

33 0
 s    3 1.00
             18.731137    0.03349459952309
             2.8253937    0.23472694665786
             0.6401217    0.81375731841339
 s    1 1.00
             0.1612778                   1

34 0
 s    3 1.00
             18.731137    0.03349459952309
             2.8253937    0.23472694665786
             0.6401217    0.81375731841339
 s    1 1.00
             0.1612778                   1

35 0
 s    3 1.00
             18.731137    0.03349459952309
             2.8253937    0.23472694665786
             0.6401217    0.81375731841339
 s    1 1.00
             0.1612778                   1

36 0
 s    3 1.00
             18.731137    0.03349459952309
             2.8253937    0.23472694665786
             0.6401217    0.81375731841339
 s    1 1.00
             0.1612778                   1

37 0
 s    3 1.00
             18.731137    0.03349459952309
             2.8253937    0.23472694665786
             0.6401217    0.81375731841339
 s    1 1.00
             0.1612778                   1

38 0
 s    3 1.00
             18.731137    0.03349459952309
             2.8253937    0.23472694665786
             0.6401217    0.81375731841339
 s    1 1.00
             0.1612778                   1

[5d]
[9g]


[MO]
 Sym= A
 Ene=    -18.76583244
 Spin= Alpha
 Occup=    2.00000
   1     -0.70355166048911
   2    -0.023907823532124
   3     0.020662564006775
   4    2.8392846509973e-06
   5    -0.00038355355929915
   6    0.0015382532383386
   7    0.00031145369881435
   8    0.0020516072351751
   9    -0.0069003661392176
  10    0.00048426482690086
  11    -6.9534504823786e-05
  12    -0.00017308981673299
  13    -0.00013749321981286
  14    0.00029627385771887
  15      0.70385098545506
  16     0.023917150848248
  17    -0.020668573309649
  18    -2.8317119138027e-06
  19    -0.00038349111530983
  20    -0.0015388689675271
  21    -0.00031143361501386
  22    0.0020514131372875
  23    0.0069024063504429
  24    -0.00048453674985516
  25    6.9527023336239e-05
  26    -0.00017308073927735
  27    0.00013735711647238
  28    0.00029640308826242
  29    0.00019695885775896
  30    0.0013198116978636
  31    -0.0097348823864314
  32    -0.00053023113489518
  33    -0.0001911832317063
  34    -0.00097376442665989
  35    -1.2130821307756e-05
  36    0.0042377233807809
  37    -0.0030358068467346
  38    -0.00018947986766981
  39    -0.00028127984700455
  40    -0.00033698848504989
  41    -6.7680055570482e-05
  42    -0.00010737082957516
  43    0.00014381345145409
  44    0.0012731118600986
  45    -0.007286204811841
  46    0.00054951052294296
  47    6.0965979724538e-05
  48    8.1333623547334e-05
  49    -0.0074487545845433
  50    -0.012878960978528
  51    -0.0001741219255178
  52    0.00010319123673824
  53    -0.00012984837162467
  54    -0.00016280601792376
  55    0.00022370718024585
  56    1.424932382923e-05
  57    -0.00014382066965648
  58    -0.0012733356551726
  59    0.0072847611343228
  60    -0.00054967433442863
  61    6.0996760801721e-05
  62    -8.1396409376553e-05
  63    0.0074492939071535
  64    -0.012879886907087
  65    0.00017412880390278
  66    -0.0001031433562587
  67    0.00012986864628578
  68    -0.00016282611180107
  69    -0.00022370609071555
  70    1.4293016524193e-05
  71    -0.00019698052940154
  72    -0.0013199418516323
  73    0.0097366697069027
  74    0.00053047326103687
  75    -0.00019132610932239
  76    0.0009740500547716
  77    1.0464010054345e-05
  78    0.0042391305267577
  79    0.0030368837678386
  80    0.00018957995118925
  81    0.0002813734301502
  82    -0.00033701805361042
  83    6.7689246512615e-05
  84    -0.00010733766035067
  85    -0.00029757472547108
  86    -0.0016310168802797
  87     0.024034098643678
  88    -0.00074589708585129
  89    -2.5215493909011e-05
  90    0.0010260565941721
  91    0.0036703702284408
  92    -0.0095681016436559
  93    0.0061735249939613
  94    0.00020292774680414
  95    -0.00037185943071971
  96    4.3407047081043e-05
  97    -7.7708214442529e-05
  98    8.4235024196759e-05
  99    0.00029753216982231
 100    0.0016306881284231
 101    -0.024031576769881
 102    0.00074572193821632
 103    -2.5438533119938e-05
 104    -0.0010257550051954
 105    -0.003671284267527
 106    -0.0095680703424999
 107    -0.0061726943285705
 108    -0.00020285269433114
 109    0.00037175566243287
 110    4.3363102370095e-05
 111    7.7706004979391e-05
 112    8.4251665926544e-05
 113    3.4809047957052e-05
 114    0.00058487176419358
 115    0.0043820587492102
 116    0.00014507067093927
 117    0.00036681060138039
 118    9.4861575159007e-06
 119    -0.001770410382431
 120    0.0015569620018076
 121    0.00053310524877761
 122    -5.817565037342e-05
 123    -0.00010518808662106
 124    -1.6893023581698e-05
 125    2.2442906381285e-05
 126    3.773415678587e-05
 127    3.6500000429844e-05
 128    0.00011620505355605
 129    -0.006680935774595
 130    -8.0301796678714e-05
 131    -9.0585663322953e-05
 132    -0.00010966787419495
 133    -0.0060893871706655
 134    0.00043758472165637
 135    0.00047691854341233
 136    8.6949328485147e-05
 137    1.3237047651502e-05
 138    -1.7573792039244e-05
 139    -9.4519341093587e-05
 140    -4.851398553287e-05
 141    -3.650415993165e-05
 142    -0.00011618340859193
 143    0.0066819449370701
 144    8.0370765599968e-05
 145    -9.0585578667501e-05
 146    0.00010970723596855
 147    0.0060896036636423
 148    0.00043717523746041
 149    -0.00047707410344025
 150    -8.6959829802162e-05
 151    -1.3245898274463e-05
 152    -1.7583125257231e-05
 153    9.454266596377e-05
 154    -4.8528796832886e-05
 155    -3.4830613383898e-05
 156    -0.00058516491914474
 157    -0.0043826781609685
 158    -0.00014517682199428
 159    0.00036693386003126
 160    -9.5387947182973e-06
 161    0.0017723160253613
 162    0.0015575035863658
 163    -0.00053305766070669
 164    5.820220213925e-05
 165    0.00010524340920568
 166    -1.691453560498e-05
 167    -2.2453198850357e-05
 168    3.7738059890062e-05
 169    -3.0169444122312e-05
 170    -0.00074233146369005
 171    -0.0031647295612633
 172    0.00052797162051091
 173    6.3234708142836e-05
 174    -0.00017551439877848
 175    -0.0012727127139736
 176    0.0068430551085568
 177    -0.00073672959625634
 178    0.00010862690650064
 179    1.4497658559658e-05
 180    0.00012254733467427
 181    5.2560935163928e-06
 182    -6.4101718197923e-05
 183    3.0140693867721e-05
 184    0.00074202028571429
 185    0.0031653483214133
 186    -0.00052783659720906
 187    6.3271075513138e-05
 188    0.0001754862304598
 189    0.0012717850679375
 190     0.006842391775521
 191    0.00073674955821408
 192    -0.0001086176224802
 193    -1.4559085678008e-05
 194    0.00012251032929027
 195    -5.263011044419e-06
 196    -6.4136388023381e-05
 197    -1.211795750972e-05
 198    -3.7793997897518e-06
 199    0.0045869202861982
 200    -0.00014123318332474
 201    4.9138912680019e-05