#INFO: **** input file is /tigress/xingz/pydmfet/examples/research/O2-graphene.py ****
from pydmfet import locints, sdmfet,oep,tools,dfet_ao
from pydmfet.qcwrap.pyscf_rks_ao import rks_ao
from pyscf import gto, scf, ao2mo
import numpy as np
from pyscf.tools import molden
import time
from pydmfet import dfet_ao
from pydmfet.dfet_ao import dfet
from read_umat import read_umat

bas ='6-31G*'
temp = 0.005


mol = gto.Mole()
mol.atom = open('O2-graphene.xyz').read()
mol.basis = bas
mol.charge = 0
mol.build(max_memory = 24000, verbose=4)

dm_guess=None
_, _, mo_coeff, mo_occ, _, _ = molden.load("MO.molden")
dm_guess = np.dot(mo_coeff*mo_occ, mo_coeff.T)


#mf = scf.UKS(mol)
mf = rks_ao(mol,smear_sigma = temp)
mf.xc = "pbe,pbe"
mf.max_cycle = 50
mf.scf(dm0=dm_guess)

with open( 'MO.molden', 'w' ) as thefile:
    molden.header(mf.mol, thefile)
    molden.orbital_coeff(mf.mol, thefile, mf.mo_coeff,occ = mf.mo_occ)
#INFO: ******************** input file end ********************


System: uname_result(system='Linux', node='tigercpu.princeton.edu', release='3.10.0-957.27.2.el7.x86_64', version='#1 SMP Tue Jul 30 11:12:20 EDT 2019', machine='x86_64', processor='x86_64')  Threads 40
Python 3.7.0 (default, Jun 28 2018, 13:15:42) 
[GCC 7.2.0]
numpy 1.16.4  scipy 1.4.0.dev0+0f78e0f
Date: Tue Sep 10 18:31:08 2019
PySCF version 1.5
PySCF path  /home/xingz/.local/lib/python3.7/site-packages/pyscf

[CONFIG] conf_file None
[INPUT] verbose = 4
[INPUT] num. atoms = 48
[INPUT] num. electrons = 222
[INPUT] charge = 0
[INPUT] spin (= nelec alpha-beta = 2S) = 0
[INPUT] symmetry False subgroup None
[INPUT] Mole.unit = angstrom
[INPUT]  1 O      1.832205000000  -1.057825000000   1.300000000000 AA    3.462365654059  -1.998999537718   2.456643961935 Bohr
[INPUT]  2 O      0.610735000000   1.057825000000   1.300000000000 AA    1.154121884686   1.998999537718   2.456643961935 Bohr
[INPUT]  3 C      1.221470000000   0.705220000000   0.000000000000 AA    2.308243769372   1.332672657566   0.000000000000 Bohr
[INPUT]  4 C      1.221470000000  -0.705220000000   0.000000000000 AA    2.308243769372  -1.332672657566   0.000000000000 Bohr
[INPUT]  5 C      0.000000000000  -1.410430000000   0.000000000000 AA    0.000000000000  -2.665326417870   0.000000000000 Bohr
[INPUT]  6 C     -1.221470000000  -0.705220000000   0.000000000000 AA   -2.308243769372  -1.332672657566   0.000000000000 Bohr
[INPUT]  7 C     -1.221470000000   0.705220000000   0.000000000000 AA   -2.308243769372   1.332672657566   0.000000000000 Bohr
[INPUT]  8 C      0.000000000000   1.410430000000   0.000000000000 AA    0.000000000000   2.665326417870   0.000000000000 Bohr
[INPUT]  9 C      2.442940000000   1.410430000000   0.000000000000 AA    4.616487538745   2.665326417870   0.000000000000 Bohr
[INPUT] 10 C      3.664760000000   0.706140000000   0.000000000000 AA    6.925392712261   1.334411205600   0.000000000000 Bohr
[INPUT] 11 C      3.664760000000  -0.706140000000   0.000000000000 AA    6.925392712261  -1.334411205600   0.000000000000 Bohr
[INPUT] 12 C      2.442940000000  -1.410430000000   0.000000000000 AA    4.616487538745  -2.665326417870   0.000000000000 Bohr
[INPUT] 13 C      2.443910000000  -2.820710000000   0.000000000000 AA    4.618320573086  -5.330369376822   0.000000000000 Bohr
[INPUT] 14 C      0.000000000000  -2.820870000000   0.000000000000 AA    0.000000000000  -5.330671733002   0.000000000000 Bohr
[INPUT] 15 C     -2.442940000000  -1.410430000000   0.000000000000 AA   -4.616487538745  -2.665326417870   0.000000000000 Bohr
[INPUT] 16 C     -2.442940000000   1.410430000000   0.000000000000 AA   -4.616487538745   2.665326417870   0.000000000000 Bohr
[INPUT] 17 C      0.000000000000   2.820870000000   0.000000000000 AA    0.000000000000   5.330671733002   0.000000000000 Bohr
[INPUT] 18 C      2.443910000000   2.820710000000   0.000000000000 AA    4.618320573086   5.330369376822   0.000000000000 Bohr
[INPUT] 19 C      4.887650000000   1.412940000000   0.000000000000 AA    9.236319892730   2.670069630443   0.000000000000 Bohr
[INPUT] 20 C      4.887650000000  -1.412940000000   0.000000000000 AA    9.236319892730  -2.670069630443   0.000000000000 Bohr
[INPUT] 21 C      1.220850000000   3.526840000000   0.000000000000 AA    2.307072139175   6.664761685161   0.000000000000 Bohr
[INPUT] 22 C     -1.220850000000   3.526840000000   0.000000000000 AA   -2.307072139175   6.664761685161   0.000000000000 Bohr
[INPUT] 23 C      3.667460000000   3.526360000000   0.000000000000 AA    6.930494972797   6.663854616621   0.000000000000 Bohr
[INPUT] 24 C      1.220850000000  -3.526840000000   0.000000000000 AA    2.307072139175  -6.664761685161   0.000000000000 Bohr
[INPUT] 25 C     -2.443910000000   2.820710000000   0.000000000000 AA   -4.618320573086   5.330369376822   0.000000000000 Bohr
[INPUT] 26 C      4.881230000000   2.818180000000   0.000000000000 AA    9.224187851011   5.325588369727   0.000000000000 Bohr
[INPUT] 27 C     -1.220850000000  -3.526840000000   0.000000000000 AA   -2.307072139175  -6.664761685161   0.000000000000 Bohr
[INPUT] 28 C     -3.664760000000   0.706140000000   0.000000000000 AA   -6.925392712261   1.334411205600   0.000000000000 Bohr
[INPUT] 29 C      3.667460000000  -3.526360000000   0.000000000000 AA    6.930494972797  -6.663854616621   0.000000000000 Bohr
[INPUT] 30 C      6.096720000000   0.699840000000   0.000000000000 AA   11.521131058158   1.322505931016   0.000000000000 Bohr
[INPUT] 31 C     -2.443910000000  -2.820710000000   0.000000000000 AA   -4.618320573086  -5.330369376822   0.000000000000 Bohr
[INPUT] 32 C     -3.664760000000  -0.706140000000   0.000000000000 AA   -6.925392712261  -1.334411205600   0.000000000000 Bohr
[INPUT] 33 C      4.881230000000  -2.818180000000   0.000000000000 AA    9.224187851011  -5.325588369727   0.000000000000 Bohr
[INPUT] 34 C      6.096720000000  -0.699840000000   0.000000000000 AA   11.521131058158  -1.322505931016   0.000000000000 Bohr
[INPUT] 35 H      5.820580000000   3.360510000000   0.000000000000 AA   10.999302086121   6.350443538862   0.000000000000 Bohr
[INPUT] 36 H      7.044400000000   1.225090000000   0.000000000000 AA   13.311986711886   2.315084577943   0.000000000000 Bohr
[INPUT] 37 H      5.820580000000  -3.360510000000   0.000000000000 AA   10.999302086121  -6.350443538862   0.000000000000 Bohr
[INPUT] 38 H      7.044400000000  -1.225090000000   0.000000000000 AA   13.311986711886  -2.315084577943   0.000000000000 Bohr
[INPUT] 39 H      1.220500000000   4.558840000000   0.000000000000 AA    2.306410735032   8.614959045712   0.000000000000 Bohr
[INPUT] 40 H     -1.220500000000   4.558840000000   0.000000000000 AA   -2.306410735032   8.614959045712   0.000000000000 Bohr
[INPUT] 41 H      3.670060000000   4.558360000000   0.000000000000 AA    6.935408260721   8.614051977172   0.000000000000 Bohr
[INPUT] 42 H      1.220500000000  -4.558840000000   0.000000000000 AA    2.306410735032  -8.614959045712   0.000000000000 Bohr
[INPUT] 43 H     -3.337820000000   3.336400000000   0.000000000000 AA   -6.307565653096   6.304882241999   0.000000000000 Bohr
[INPUT] 44 H     -1.220500000000  -4.558840000000   0.000000000000 AA   -2.306410735032  -8.614959045712   0.000000000000 Bohr
[INPUT] 45 H     -4.558320000000   1.222450000000   0.000000000000 AA   -8.613976388127   2.310095700975   0.000000000000 Bohr
[INPUT] 46 H      3.670060000000  -4.558360000000   0.000000000000 AA    6.935408260721  -8.614051977172   0.000000000000 Bohr
[INPUT] 47 H     -3.337820000000  -3.336400000000   0.000000000000 AA   -6.307565653096  -6.304882241999   0.000000000000 Bohr
[INPUT] 48 H     -4.558320000000  -1.222450000000   0.000000000000 AA   -8.613976388127  -2.310095700975   0.000000000000 Bohr

nuclear repulsion = 3395.56554220199
number of shells = 232
number of NR pGTOs = 974
number of NR cGTOs = 504
basis = 6-31G*
ecp = {}
CPU time:         4.78
rks_ao.ne_frozen =  0


******** <class 'pydmfet.qcwrap.pyscf_rks_ao.rks_ao'> flags ********
method = rks_ao-RKS-RHF
initial guess = minao
damping factor = 0
level shift factor = 0
DIIS = <class 'pyscf.scf.diis.CDIIS'>
DIIS start cycle = 1
DIIS space = 8
SCF tol = 1e-09
SCF gradient tol = None
max. SCF cycles = 50
direct_scf = False
chkfile to save SCF result = /tigress/xingz/pydmfet/examples/research/tmp033x6e8e
max_memory 24000 MB (current use 111 MB)
XC functionals = pbe,pbe
small_rho_cutoff = 1e-07
radial grids: 
    Treutler-Ahlrichs (JCP 102, 346 (M4)) radial grids
    
becke partition: Becke, JCP, 88, 2547 (1988)
pruning grids: <function nwchem_prune at 0x2ace66cd6400>
grids dens level: 3
symmetrized grids: False
atomic radii adjust function: <function treutler_atomic_radii_adjust at 0x2ace66cd6378>
Set gradient conv threshold to 3.16228e-05
tot grids = 613724
init E= -1376.43465097788
HOMO:  -0.15660940444007423 LUMO:  -0.1138887010325007
Fermi energy:      -0.1349567056
[2.0000e+00 2.0000e+00 2.0000e+00 2.0000e+00 2.0000e+00 2.0000e+00
 2.0000e+00 2.0000e+00 2.0000e+00 2.0000e+00 2.0000e+00 2.0000e+00
 2.0000e+00 2.0000e+00 2.0000e+00 2.0000e+00 2.0000e+00 2.0000e+00
 2.0000e+00 2.0000e+00 2.0000e+00 2.0000e+00 2.0000e+00 2.0000e+00
 2.0000e+00 2.0000e+00 2.0000e+00 2.0000e+00 2.0000e+00 2.0000e+00
 2.0000e+00 2.0000e+00 2.0000e+00 2.0000e+00 2.0000e+00 2.0000e+00
 2.0000e+00 2.0000e+00 2.0000e+00 2.0000e+00 2.0000e+00 2.0000e+00
 2.0000e+00 2.0000e+00 2.0000e+00 2.0000e+00 2.0000e+00 2.0000e+00
 2.0000e+00 2.0000e+00 2.0000e+00 2.0000e+00 2.0000e+00 2.0000e+00
 2.0000e+00 2.0000e+00 2.0000e+00 2.0000e+00 2.0000e+00 2.0000e+00
 2.0000e+00 2.0000e+00 2.0000e+00 2.0000e+00 2.0000e+00 2.0000e+00
 2.0000e+00 2.0000e+00 2.0000e+00 2.0000e+00 2.0000e+00 2.0000e+00
 2.0000e+00 2.0000e+00 2.0000e+00 2.0000e+00 2.0000e+00 2.0000e+00
 2.0000e+00 2.0000e+00 2.0000e+00 2.0000e+00 2.0000e+00 2.0000e+00
 2.0000e+00 2.0000e+00 2.0000e+00 2.0000e+00 2.0000e+00 2.0000e+00
 2.0000e+00 2.0000e+00 2.0000e+00 2.0000e+00 2.0000e+00 2.0000e+00
 2.0000e+00 2.0000e+00 2.0000e+00 2.0000e+00 2.0000e+00 2.0000e+00
 2.0000e+00 2.0000e+00 2.0000e+00 2.0000e+00 2.0000e+00 2.0000e+00
 2.0000e+00 1.9960e+00 1.9740e+00 2.9155e-02 8.7888e-04]
entropy correction =  -0.0016403091152766803
cycle= 1 E= -1376.4515588218  delta_E= -0.0169  |g|= 0.0697  |ddm|= 1.88
HOMO:  -0.1554981319616365 LUMO:  -0.11473720544053725
Fermi energy:      -0.1349454498
[2.0000e+00 2.0000e+00 2.0000e+00 2.0000e+00 2.0000e+00 2.0000e+00
 2.0000e+00 2.0000e+00 2.0000e+00 2.0000e+00 2.0000e+00 2.0000e+00
 2.0000e+00 2.0000e+00 2.0000e+00 2.0000e+00 2.0000e+00 2.0000e+00
 2.0000e+00 2.0000e+00 2.0000e+00 2.0000e+00 2.0000e+00 2.0000e+00
 2.0000e+00 2.0000e+00 2.0000e+00 2.0000e+00 2.0000e+00 2.0000e+00
 2.0000e+00 2.0000e+00 2.0000e+00 2.0000e+00 2.0000e+00 2.0000e+00
 2.0000e+00 2.0000e+00 2.0000e+00 2.0000e+00 2.0000e+00 2.0000e+00
 2.0000e+00 2.0000e+00 2.0000e+00 2.0000e+00 2.0000e+00 2.0000e+00
 2.0000e+00 2.0000e+00 2.0000e+00 2.0000e+00 2.0000e+00 2.0000e+00
 2.0000e+00 2.0000e+00 2.0000e+00 2.0000e+00 2.0000e+00 2.0000e+00
 2.0000e+00 2.0000e+00 2.0000e+00 2.0000e+00 2.0000e+00 2.0000e+00
 2.0000e+00 2.0000e+00 2.0000e+00 2.0000e+00 2.0000e+00 2.0000e+00
 2.0000e+00 2.0000e+00 2.0000e+00 2.0000e+00 2.0000e+00 2.0000e+00
 2.0000e+00 2.0000e+00 2.0000e+00 2.0000e+00 2.0000e+00 2.0000e+00
 2.0000e+00 2.0000e+00 2.0000e+00 2.0000e+00 2.0000e+00 2.0000e+00
 2.0000e+00 2.0000e+00 2.0000e+00 2.0000e+00 2.0000e+00 2.0000e+00
 2.0000e+00 2.0000e+00 2.0000e+00 2.0000e+00 2.0000e+00 2.0000e+00
 2.0000e+00 2.0000e+00 2.0000e+00 2.0000e+00 2.0000e+00 2.0000e+00
 2.0000e+00 1.9966e+00 1.9677e+00 3.4530e-02 1.1608e-03]
entropy correction =  -0.0018752211952603752
cycle= 2 E= -1376.44502828515  delta_E= 0.00653  |g|= 0.188  |ddm|= 0.296
HOMO:  -0.15735580220977088 LUMO:  -0.1146573410699695
Fermi energy:      -0.1356748125
[2.0000e+00 2.0000e+00 2.0000e+00 2.0000e+00 2.0000e+00 2.0000e+00
 2.0000e+00 2.0000e+00 2.0000e+00 2.0000e+00 2.0000e+00 2.0000e+00
 2.0000e+00 2.0000e+00 2.0000e+00 2.0000e+00 2.0000e+00 2.0000e+00
 2.0000e+00 2.0000e+00 2.0000e+00 2.0000e+00 2.0000e+00 2.0000e+00
 2.0000e+00 2.0000e+00 2.0000e+00 2.0000e+00 2.0000e+00 2.0000e+00
 2.0000e+00 2.0000e+00 2.0000e+00 2.0000e+00 2.0000e+00 2.0000e+00
 2.0000e+00 2.0000e+00 2.0000e+00 2.0000e+00 2.0000e+00 2.0000e+00
 2.0000e+00 2.0000e+00 2.0000e+00 2.0000e+00 2.0000e+00 2.0000e+00
 2.0000e+00 2.0000e+00 2.0000e+00 2.0000e+00 2.0000e+00 2.0000e+00
 2.0000e+00 2.0000e+00 2.0000e+00 2.0000e+00 2.0000e+00 2.0000e+00
 2.0000e+00 2.0000e+00 2.0000e+00 2.0000e+00 2.0000e+00 2.0000e+00
 2.0000e+00 2.0000e+00 2.0000e+00 2.0000e+00 2.0000e+00 2.0000e+00
 2.0000e+00 2.0000e+00 2.0000e+00 2.0000e+00 2.0000e+00 2.0000e+00
 2.0000e+00 2.0000e+00 2.0000e+00 2.0000e+00 2.0000e+00 2.0000e+00
 2.0000e+00 2.0000e+00 2.0000e+00 2.0000e+00 2.0000e+00 2.0000e+00
 2.0000e+00 2.0000e+00 2.0000e+00 2.0000e+00 2.0000e+00 2.0000e+00
 2.0000e+00 2.0000e+00 2.0000e+00 2.0000e+00 2.0000e+00 2.0000e+00
 2.0000e+00 2.0000e+00 2.0000e+00 2.0000e+00 2.0000e+00 2.0000e+00
 2.0000e+00 1.9956e+00 1.9742e+00 2.9447e-02 8.0225e-04]
entropy correction =  -0.0016514369360681486
cycle= 3 E= -1376.45220877576  delta_E= -0.00718  |g|= 0.0379  |ddm|=  0.2
HOMO:  -0.15506531634115087 LUMO:  -0.11280123940409682
Fermi energy:      -0.1337025548
[2.0000e+00 2.0000e+00 2.0000e+00 2.0000e+00 2.0000e+00 2.0000e+00
 2.0000e+00 2.0000e+00 2.0000e+00 2.0000e+00 2.0000e+00 2.0000e+00
 2.0000e+00 2.0000e+00 2.0000e+00 2.0000e+00 2.0000e+00 2.0000e+00
 2.0000e+00 2.0000e+00 2.0000e+00 2.0000e+00 2.0000e+00 2.0000e+00
 2.0000e+00 2.0000e+00 2.0000e+00 2.0000e+00 2.0000e+00 2.0000e+00
 2.0000e+00 2.0000e+00 2.0000e+00 2.0000e+00 2.0000e+00 2.0000e+00
 2.0000e+00 2.0000e+00 2.0000e+00 2.0000e+00 2.0000e+00 2.0000e+00
 2.0000e+00 2.0000e+00 2.0000e+00 2.0000e+00 2.0000e+00 2.0000e+00
 2.0000e+00 2.0000e+00 2.0000e+00 2.0000e+00 2.0000e+00 2.0000e+00
 2.0000e+00 2.0000e+00 2.0000e+00 2.0000e+00 2.0000e+00 2.0000e+00
 2.0000e+00 2.0000e+00 2.0000e+00 2.0000e+00 2.0000e+00 2.0000e+00
 2.0000e+00 2.0000e+00 2.0000e+00 2.0000e+00 2.0000e+00 2.0000e+00
 2.0000e+00 2.0000e+00 2.0000e+00 2.0000e+00 2.0000e+00 2.0000e+00
 2.0000e+00 2.0000e+00 2.0000e+00 2.0000e+00 2.0000e+00 2.0000e+00
 2.0000e+00 2.0000e+00 2.0000e+00 2.0000e+00 2.0000e+00 2.0000e+00
 2.0000e+00 2.0000e+00 2.0000e+00 2.0000e+00 2.0000e+00 2.0000e+00
 2.0000e+00 2.0000e+00 2.0000e+00 2.0000e+00 2.0000e+00 2.0000e+00
 2.0000e+00 2.0000e+00 2.0000e+00 2.0000e+00 2.0000e+00 2.0000e+00
 2.0000e+00 1.9964e+00 1.9725e+00 3.0128e-02 9.9659e-04]
entropy correction =  -0.0016844506472358006
cycle= 4 E= -1376.45243813766  delta_E= -0.000229  |g|= 0.0237  |ddm|= 0.0762
HOMO:  -0.1557139237485455 LUMO:  -0.11336862366782095
Fermi energy:      -0.1342635391
[2.0000e+00 2.0000e+00 2.0000e+00 2.0000e+00 2.0000e+00 2.0000e+00
 2.0000e+00 2.0000e+00 2.0000e+00 2.0000e+00 2.0000e+00 2.0000e+00
 2.0000e+00 2.0000e+00 2.0000e+00 2.0000e+00 2.0000e+00 2.0000e+00
 2.0000e+00 2.0000e+00 2.0000e+00 2.0000e+00 2.0000e+00 2.0000e+00
 2.0000e+00 2.0000e+00 2.0000e+00 2.0000e+00 2.0000e+00 2.0000e+00
 2.0000e+00 2.0000e+00 2.0000e+00 2.0000e+00 2.0000e+00 2.0000e+00
 2.0000e+00 2.0000e+00 2.0000e+00 2.0000e+00 2.0000e+00 2.0000e+00
 2.0000e+00 2.0000e+00 2.0000e+00 2.0000e+00 2.0000e+00 2.0000e+00
 2.0000e+00 2.0000e+00 2.0000e+00 2.0000e+00 2.0000e+00 2.0000e+00
 2.0000e+00 2.0000e+00 2.0000e+00 2.0000e+00 2.0000e+00 2.0000e+00
 2.0000e+00 2.0000e+00 2.0000e+00 2.0000e+00 2.0000e+00 2.0000e+00
 2.0000e+00 2.0000e+00 2.0000e+00 2.0000e+00 2.0000e+00 2.0000e+00
 2.0000e+00 2.0000e+00 2.0000e+00 2.0000e+00 2.0000e+00 2.0000e+00
 2.0000e+00 2.0000e+00 2.0000e+00 2.0000e+00 2.0000e+00 2.0000e+00
 2.0000e+00 2.0000e+00 2.0000e+00 2.0000e+00 2.0000e+00 2.0000e+00
 2.0000e+00 2.0000e+00 2.0000e+00 2.0000e+00 2.0000e+00 2.0000e+00
 2.0000e+00 2.0000e+00 2.0000e+00 2.0000e+00 2.0000e+00 2.0000e+00
 2.0000e+00 2.0000e+00 2.0000e+00 2.0000e+00 2.0000e+00 2.0000e+00
 2.0000e+00 1.9960e+00 1.9730e+00 3.0166e-02 8.9640e-04]
entropy correction =  -0.0016841493832632976
cycle= 5 E= -1376.45259174673  delta_E= -0.000154  |g|= 0.00478  |ddm|= 0.0339
HOMO:  -0.15582252279935202 LUMO:  -0.1134793659530584
Fermi energy:      -0.1343788873
[2.0000e+00 2.0000e+00 2.0000e+00 2.0000e+00 2.0000e+00 2.0000e+00
 2.0000e+00 2.0000e+00 2.0000e+00 2.0000e+00 2.0000e+00 2.0000e+00
 2.0000e+00 2.0000e+00 2.0000e+00 2.0000e+00 2.0000e+00 2.0000e+00
 2.0000e+00 2.0000e+00 2.0000e+00 2.0000e+00 2.0000e+00 2.0000e+00
 2.0000e+00 2.0000e+00 2.0000e+00 2.0000e+00 2.0000e+00 2.0000e+00
 2.0000e+00 2.0000e+00 2.0000e+00 2.0000e+00 2.0000e+00 2.0000e+00
 2.0000e+00 2.0000e+00 2.0000e+00 2.0000e+00 2.0000e+00 2.0000e+00
 2.0000e+00 2.0000e+00 2.0000e+00 2.0000e+00 2.0000e+00 2.0000e+00
 2.0000e+00 2.0000e+00 2.0000e+00 2.0000e+00 2.0000e+00 2.0000e+00
 2.0000e+00 2.0000e+00 2.0000e+00 2.0000e+00 2.0000e+00 2.0000e+00
 2.0000e+00 2.0000e+00 2.0000e+00 2.0000e+00 2.0000e+00 2.0000e+00
 2.0000e+00 2.0000e+00 2.0000e+00 2.0000e+00 2.0000e+00 2.0000e+00
 2.0000e+00 2.0000e+00 2.0000e+00 2.0000e+00 2.0000e+00 2.0000e+00
 2.0000e+00 2.0000e+00 2.0000e+00 2.0000e+00 2.0000e+00 2.0000e+00
 2.0000e+00 2.0000e+00 2.0000e+00 2.0000e+00 2.0000e+00 2.0000e+00
 2.0000e+00 2.0000e+00 2.0000e+00 2.0000e+00 2.0000e+00 2.0000e+00
 2.0000e+00 2.0000e+00 2.0000e+00 2.0000e+00 2.0000e+00 2.0000e+00
 2.0000e+00 2.0000e+00 2.0000e+00 2.0000e+00 2.0000e+00 2.0000e+00
 2.0000e+00 1.9961e+00 1.9729e+00 3.0139e-02 9.0767e-04]
entropy correction =  -0.0016831604534145528
cycle= 6 E= -1376.45259703705  delta_E= -5.29e-06  |g|= 0.00166  |ddm|= 0.00753
HOMO:  -0.15582898904249004 LUMO:  -0.1134864987286331
Fermi energy:      -0.1343865712
[2.0000e+00 2.0000e+00 2.0000e+00 2.0000e+00 2.0000e+00 2.0000e+00
 2.0000e+00 2.0000e+00 2.0000e+00 2.0000e+00 2.0000e+00 2.0000e+00
 2.0000e+00 2.0000e+00 2.0000e+00 2.0000e+00 2.0000e+00 2.0000e+00
 2.0000e+00 2.0000e+00 2.0000e+00 2.0000e+00 2.0000e+00 2.0000e+00
 2.0000e+00 2.0000e+00 2.0000e+00 2.0000e+00 2.0000e+00 2.0000e+00
 2.0000e+00 2.0000e+00 2.0000e+00 2.0000e+00 2.0000e+00 2.0000e+00
 2.0000e+00 2.0000e+00 2.0000e+00 2.0000e+00 2.0000e+00 2.0000e+00
 2.0000e+00 2.0000e+00 2.0000e+00 2.0000e+00 2.0000e+00 2.0000e+00
 2.0000e+00 2.0000e+00 2.0000e+00 2.0000e+00 2.0000e+00 2.0000e+00
 2.0000e+00 2.0000e+00 2.0000e+00 2.0000e+00 2.0000e+00 2.0000e+00
 2.0000e+00 2.0000e+00 2.0000e+00 2.0000e+00 2.0000e+00 2.0000e+00
 2.0000e+00 2.0000e+00 2.0000e+00 2.0000e+00 2.0000e+00 2.0000e+00
 2.0000e+00 2.0000e+00 2.0000e+00 2.0000e+00 2.0000e+00 2.0000e+00
 2.0000e+00 2.0000e+00 2.0000e+00 2.0000e+00 2.0000e+00 2.0000e+00
 2.0000e+00 2.0000e+00 2.0000e+00 2.0000e+00 2.0000e+00 2.0000e+00
 2.0000e+00 2.0000e+00 2.0000e+00 2.0000e+00 2.0000e+00 2.0000e+00
 2.0000e+00 2.0000e+00 2.0000e+00 2.0000e+00 2.0000e+00 2.0000e+00
 2.0000e+00 2.0000e+00 2.0000e+00 2.0000e+00 2.0000e+00 2.0000e+00
 2.0000e+00 1.9961e+00 1.9729e+00 3.0136e-02 9.0960e-04]
entropy correction =  -0.0016830622567752297
cycle= 7 E= -1376.45259758145  delta_E= -5.44e-07  |g|= 0.000842  |ddm|= 0.00285
HOMO:  -0.15584097563955523 LUMO:  -0.1134975193326609
Fermi energy:      -0.1343973390
[2.0000e+00 2.0000e+00 2.0000e+00 2.0000e+00 2.0000e+00 2.0000e+00
 2.0000e+00 2.0000e+00 2.0000e+00 2.0000e+00 2.0000e+00 2.0000e+00
 2.0000e+00 2.0000e+00 2.0000e+00 2.0000e+00 2.0000e+00 2.0000e+00
 2.0000e+00 2.0000e+00 2.0000e+00 2.0000e+00 2.0000e+00 2.0000e+00
 2.0000e+00 2.0000e+00 2.0000e+00 2.0000e+00 2.0000e+00 2.0000e+00
 2.0000e+00 2.0000e+00 2.0000e+00 2.0000e+00 2.0000e+00 2.0000e+00
 2.0000e+00 2.0000e+00 2.0000e+00 2.0000e+00 2.0000e+00 2.0000e+00
 2.0000e+00 2.0000e+00 2.0000e+00 2.0000e+00 2.0000e+00 2.0000e+00
 2.0000e+00 2.0000e+00 2.0000e+00 2.0000e+00 2.0000e+00 2.0000e+00
 2.0000e+00 2.0000e+00 2.0000e+00 2.0000e+00 2.0000e+00 2.0000e+00
 2.0000e+00 2.0000e+00 2.0000e+00 2.0000e+00 2.0000e+00 2.0000e+00
 2.0000e+00 2.0000e+00 2.0000e+00 2.0000e+00 2.0000e+00 2.0000e+00
 2.0000e+00 2.0000e+00 2.0000e+00 2.0000e+00 2.0000e+00 2.0000e+00
 2.0000e+00 2.0000e+00 2.0000e+00 2.0000e+00 2.0000e+00 2.0000e+00
 2.0000e+00 2.0000e+00 2.0000e+00 2.0000e+00 2.0000e+00 2.0000e+00
 2.0000e+00 2.0000e+00 2.0000e+00 2.0000e+00 2.0000e+00 2.0000e+00
 2.0000e+00 2.0000e+00 2.0000e+00 2.0000e+00 2.0000e+00 2.0000e+00
 2.0000e+00 2.0000e+00 2.0000e+00 2.0000e+00 2.0000e+00 2.0000e+00
 2.0000e+00 1.9961e+00 1.9729e+00 3.0137e-02 9.0807e-04]
entropy correction =  -0.0016830963564683737
cycle= 8 E= -1376.45259775718  delta_E= -1.76e-07  |g|= 0.000413  |ddm|= 0.00155
HOMO:  -0.1558364534188596 LUMO:  -0.11349267030931394
Fermi energy:      -0.1343926937
[2.0000e+00 2.0000e+00 2.0000e+00 2.0000e+00 2.0000e+00 2.0000e+00
 2.0000e+00 2.0000e+00 2.0000e+00 2.0000e+00 2.0000e+00 2.0000e+00
 2.0000e+00 2.0000e+00 2.0000e+00 2.0000e+00 2.0000e+00 2.0000e+00
 2.0000e+00 2.0000e+00 2.0000e+00 2.0000e+00 2.0000e+00 2.0000e+00
 2.0000e+00 2.0000e+00 2.0000e+00 2.0000e+00 2.0000e+00 2.0000e+00
 2.0000e+00 2.0000e+00 2.0000e+00 2.0000e+00 2.0000e+00 2.0000e+00
 2.0000e+00 2.0000e+00 2.0000e+00 2.0000e+00 2.0000e+00 2.0000e+00
 2.0000e+00 2.0000e+00 2.0000e+00 2.0000e+00 2.0000e+00 2.0000e+00
 2.0000e+00 2.0000e+00 2.0000e+00 2.0000e+00 2.0000e+00 2.0000e+00
 2.0000e+00 2.0000e+00 2.0000e+00 2.0000e+00 2.0000e+00 2.0000e+00
 2.0000e+00 2.0000e+00 2.0000e+00 2.0000e+00 2.0000e+00 2.0000e+00
 2.0000e+00 2.0000e+00 2.0000e+00 2.0000e+00 2.0000e+00 2.0000e+00
 2.0000e+00 2.0000e+00 2.0000e+00 2.0000e+00 2.0000e+00 2.0000e+00
 2.0000e+00 2.0000e+00 2.0000e+00 2.0000e+00 2.0000e+00 2.0000e+00
 2.0000e+00 2.0000e+00 2.0000e+00 2.0000e+00 2.0000e+00 2.0000e+00
 2.0000e+00 2.0000e+00 2.0000e+00 2.0000e+00 2.0000e+00 2.0000e+00
 2.0000e+00 2.0000e+00 2.0000e+00 2.0000e+00 2.0000e+00 2.0000e+00
 2.0000e+00 2.0000e+00 2.0000e+00 2.0000e+00 2.0000e+00 2.0000e+00
 2.0000e+00 1.9961e+00 1.9729e+00 3.0136e-02 9.0816e-04]
entropy correction =  -0.0016830463070379893
cycle= 9 E= -1376.45259779767  delta_E= -4.05e-08  |g|= 0.000208  |ddm|= 0.000785
HOMO:  -0.15583449549933978 LUMO:  -0.11349061132997827
Fermi energy:      -0.1343907386
[2.0000e+00 2.0000e+00 2.0000e+00 2.0000e+00 2.0000e+00 2.0000e+00
 2.0000e+00 2.0000e+00 2.0000e+00 2.0000e+00 2.0000e+00 2.0000e+00
 2.0000e+00 2.0000e+00 2.0000e+00 2.0000e+00 2.0000e+00 2.0000e+00
 2.0000e+00 2.0000e+00 2.0000e+00 2.0000e+00 2.0000e+00 2.0000e+00
 2.0000e+00 2.0000e+00 2.0000e+00 2.0000e+00 2.0000e+00 2.0000e+00
 2.0000e+00 2.0000e+00 2.0000e+00 2.0000e+00 2.0000e+00 2.0000e+00
 2.0000e+00 2.0000e+00 2.0000e+00 2.0000e+00 2.0000e+00 2.0000e+00
 2.0000e+00 2.0000e+00 2.0000e+00 2.0000e+00 2.0000e+00 2.0000e+00
 2.0000e+00 2.0000e+00 2.0000e+00 2.0000e+00 2.0000e+00 2.0000e+00
 2.0000e+00 2.0000e+00 2.0000e+00 2.0000e+00 2.0000e+00 2.0000e+00
 2.0000e+00 2.0000e+00 2.0000e+00 2.0000e+00 2.0000e+00 2.0000e+00
 2.0000e+00 2.0000e+00 2.0000e+00 2.0000e+00 2.0000e+00 2.0000e+00
 2.0000e+00 2.0000e+00 2.0000e+00 2.0000e+00 2.0000e+00 2.0000e+00
 2.0000e+00 2.0000e+00 2.0000e+00 2.0000e+00 2.0000e+00 2.0000e+00
 2.0000e+00 2.0000e+00 2.0000e+00 2.0000e+00 2.0000e+00 2.0000e+00
 2.0000e+00 2.0000e+00 2.0000e+00 2.0000e+00 2.0000e+00 2.0000e+00
 2.0000e+00 2.0000e+00 2.0000e+00 2.0000e+00 2.0000e+00 2.0000e+00
 2.0000e+00 2.0000e+00 2.0000e+00 2.0000e+00 2.0000e+00 2.0000e+00
 2.0000e+00 1.9961e+00 1.9729e+00 3.0135e-02 9.0827e-04]
entropy correction =  -0.0016830213938824202
cycle= 10 E= -1376.45259780876  delta_E= -1.11e-08  |g|= 9.75e-05  |ddm|= 0.00039
HOMO:  -0.15583585720766963 LUMO:  -0.11349194790174247
Fermi energy:      -0.1343920240
[2.0000e+00 2.0000e+00 2.0000e+00 2.0000e+00 2.0000e+00 2.0000e+00
 2.0000e+00 2.0000e+00 2.0000e+00 2.0000e+00 2.0000e+00 2.0000e+00
 2.0000e+00 2.0000e+00 2.0000e+00 2.0000e+00 2.0000e+00 2.0000e+00
 2.0000e+00 2.0000e+00 2.0000e+00 2.0000e+00 2.0000e+00 2.0000e+00
 2.0000e+00 2.0000e+00 2.0000e+00 2.0000e+00 2.0000e+00 2.0000e+00
 2.0000e+00 2.0000e+00 2.0000e+00 2.0000e+00 2.0000e+00 2.0000e+00
 2.0000e+00 2.0000e+00 2.0000e+00 2.0000e+00 2.0000e+00 2.0000e+00
 2.0000e+00 2.0000e+00 2.0000e+00 2.0000e+00 2.0000e+00 2.0000e+00
 2.0000e+00 2.0000e+00 2.0000e+00 2.0000e+00 2.0000e+00 2.0000e+00
 2.0000e+00 2.0000e+00 2.0000e+00 2.0000e+00 2.0000e+00 2.0000e+00
 2.0000e+00 2.0000e+00 2.0000e+00 2.0000e+00 2.0000e+00 2.0000e+00
 2.0000e+00 2.0000e+00 2.0000e+00 2.0000e+00 2.0000e+00 2.0000e+00
 2.0000e+00 2.0000e+00 2.0000e+00 2.0000e+00 2.0000e+00 2.0000e+00
 2.0000e+00 2.0000e+00 2.0000e+00 2.0000e+00 2.0000e+00 2.0000e+00
 2.0000e+00 2.0000e+00 2.0000e+00 2.0000e+00 2.0000e+00 2.0000e+00
 2.0000e+00 2.0000e+00 2.0000e+00 2.0000e+00 2.0000e+00 2.0000e+00
 2.0000e+00 2.0000e+00 2.0000e+00 2.0000e+00 2.0000e+00 2.0000e+00
 2.0000e+00 2.0000e+00 2.0000e+00 2.0000e+00 2.0000e+00 2.0000e+00
 2.0000e+00 1.9961e+00 1.9729e+00 3.0136e-02 9.0813e-04]
entropy correction =  -0.0016830315525719263
cycle= 11 E= -1376.45259781128  delta_E= -2.51e-09  |g|= 4.07e-05  |ddm|= 0.000171
HOMO:  -0.15583598093833187 LUMO:  -0.11349202132080376
Fermi energy:      -0.1343921278
[2.0000e+00 2.0000e+00 2.0000e+00 2.0000e+00 2.0000e+00 2.0000e+00
 2.0000e+00 2.0000e+00 2.0000e+00 2.0000e+00 2.0000e+00 2.0000e+00
 2.0000e+00 2.0000e+00 2.0000e+00 2.0000e+00 2.0000e+00 2.0000e+00
 2.0000e+00 2.0000e+00 2.0000e+00 2.0000e+00 2.0000e+00 2.0000e+00
 2.0000e+00 2.0000e+00 2.0000e+00 2.0000e+00 2.0000e+00 2.0000e+00
 2.0000e+00 2.0000e+00 2.0000e+00 2.0000e+00 2.0000e+00 2.0000e+00
 2.0000e+00 2.0000e+00 2.0000e+00 2.0000e+00 2.0000e+00 2.0000e+00
 2.0000e+00 2.0000e+00 2.0000e+00 2.0000e+00 2.0000e+00 2.0000e+00
 2.0000e+00 2.0000e+00 2.0000e+00 2.0000e+00 2.0000e+00 2.0000e+00
 2.0000e+00 2.0000e+00 2.0000e+00 2.0000e+00 2.0000e+00 2.0000e+00
 2.0000e+00 2.0000e+00 2.0000e+00 2.0000e+00 2.0000e+00 2.0000e+00
 2.0000e+00 2.0000e+00 2.0000e+00 2.0000e+00 2.0000e+00 2.0000e+00
 2.0000e+00 2.0000e+00 2.0000e+00 2.0000e+00 2.0000e+00 2.0000e+00
 2.0000e+00 2.0000e+00 2.0000e+00 2.0000e+00 2.0000e+00 2.0000e+00
 2.0000e+00 2.0000e+00 2.0000e+00 2.0000e+00 2.0000e+00 2.0000e+00
 2.0000e+00 2.0000e+00 2.0000e+00 2.0000e+00 2.0000e+00 2.0000e+00
 2.0000e+00 2.0000e+00 2.0000e+00 2.0000e+00 2.0000e+00 2.0000e+00
 2.0000e+00 2.0000e+00 2.0000e+00 2.0000e+00 2.0000e+00 2.0000e+00
 2.0000e+00 1.9961e+00 1.9729e+00 3.0135e-02 9.0814e-04]
entropy correction =  -0.0016830242421904083
cycle= 12 E= -1376.45259781171  delta_E= -4.35e-10  |g|= 1.44e-05  |ddm|= 6.06e-05
HOMO:  -0.15583496984998366 LUMO:  -0.113491525234584
Fermi energy:      -0.1343914451
[2.0000e+00 2.0000e+00 2.0000e+00 2.0000e+00 2.0000e+00 2.0000e+00
 2.0000e+00 2.0000e+00 2.0000e+00 2.0000e+00 2.0000e+00 2.0000e+00
 2.0000e+00 2.0000e+00 2.0000e+00 2.0000e+00 2.0000e+00 2.0000e+00
 2.0000e+00 2.0000e+00 2.0000e+00 2.0000e+00 2.0000e+00 2.0000e+00
 2.0000e+00 2.0000e+00 2.0000e+00 2.0000e+00 2.0000e+00 2.0000e+00
 2.0000e+00 2.0000e+00 2.0000e+00 2.0000e+00 2.0000e+00 2.0000e+00
 2.0000e+00 2.0000e+00 2.0000e+00 2.0000e+00 2.0000e+00 2.0000e+00
 2.0000e+00 2.0000e+00 2.0000e+00 2.0000e+00 2.0000e+00 2.0000e+00
 2.0000e+00 2.0000e+00 2.0000e+00 2.0000e+00 2.0000e+00 2.0000e+00
 2.0000e+00 2.0000e+00 2.0000e+00 2.0000e+00 2.0000e+00 2.0000e+00
 2.0000e+00 2.0000e+00 2.0000e+00 2.0000e+00 2.0000e+00 2.0000e+00
 2.0000e+00 2.0000e+00 2.0000e+00 2.0000e+00 2.0000e+00 2.0000e+00
 2.0000e+00 2.0000e+00 2.0000e+00 2.0000e+00 2.0000e+00 2.0000e+00
 2.0000e+00 2.0000e+00 2.0000e+00 2.0000e+00 2.0000e+00 2.0000e+00
 2.0000e+00 2.0000e+00 2.0000e+00 2.0000e+00 2.0000e+00 2.0000e+00
 2.0000e+00 2.0000e+00 2.0000e+00 2.0000e+00 2.0000e+00 2.0000e+00
 2.0000e+00 2.0000e+00 2.0000e+00 2.0000e+00 2.0000e+00 2.0000e+00
 2.0000e+00 2.0000e+00 2.0000e+00 2.0000e+00 2.0000e+00 2.0000e+00
 2.0000e+00 1.9961e+00 1.9729e+00 3.0136e-02 9.0828e-04]
entropy correction =  -0.00168307452966877
Extra cycle  E= -1376.4525978112  delta_E= 5.13e-10  |g|= 4.84e-05  |ddm|= 6.56e-05
converged SCF energy = -1376.4525978112
<class 'pydmfet.qcwrap.pyscf_rks_ao.rks_ao'> does not have attributes  ne_frozen coredm dm_guess vext_1e add_coredm_ext_energy
