#INFO: **** input file is /tigress/xingz/pydmfet/examples/C24.py ****
from pydmfet import locints, sdmfet,oep,tools
from pyscf import gto, scf, ao2mo
import numpy as np
from pyscf.tools import molden
import time

bas = 'ccpvdz'

t0 = (time.clock(), time.time())
mol = gto.Mole()
mol.atom = open('C24.xyz').read()
mol.basis = bas
mol.charge = 0
mol.build(max_memory = 24000, verbose=4)

mf = scf.RHF(mol)
mf.max_cycle = 100

DMguess = None
mf.scf(dm0=DMguess)

t1 = tools.timer("full scf", t0)

myInts = locints.LocalIntegrals( mf, range( mol.nao_nr() ), 'meta_lowdin' )
#myInts.molden( 'hydrogen-loc.molden' )
myInts.TI_OK = False

t2 = tools.timer("localize orbitals", t1)

natoms = mol.natm
impAtom = np.zeros([natoms], dtype=int)
for i in range(6):
    impAtom[i] = 1


ghost_frag = 1-impAtom
ghost_env = 1-ghost_frag

mol_frag = gto.Mole()
mol_frag.atom = tools.add_ghost(mol.atom, ghost_frag)
mol_frag.basis = bas
mol_frag.build(max_memory = 24000,verbose = 4)

mol_env = gto.Mole()
mol_env.atom = tools.add_ghost(mol.atom, ghost_env)
mol_env.basis =  bas
mol_env.build(max_memory = 24000,verbose = 4)


aoslice = mol.aoslice_by_atom()
impurities = np.zeros([mol.nao_nr()], dtype = int)
for i in range(natoms):
    if(impAtom[i] == 1):
	impurities[aoslice[i,2]:aoslice[i,3]] = 1

Ne_frag = 42
boundary_atoms = np.zeros([natoms])
boundary_atoms[6:12]=1.0
boundary_atoms2 = np.zeros([natoms])
boundary_atoms2[:6] = -1.0

params = oep.OEPparams(algorithm = 'split', opt_method = 'L-BFGS-B', \
                       ftol = 1e-11, gtol = 5e-5,diffP_tol=5e-5, outer_maxit = 200, maxit = 200,l2_lambda = 0.0, oep_print = 0)
theDMFET = sdmfet.DMFET( mf, mol_frag, mol_env,myInts,impurities, impAtom, Ne_frag, boundary_atoms=boundary_atoms, boundary_atoms2=boundary_atoms2,\
                         dim_imp =71, dim_bath=71, dim_big =None, smear_sigma = 0.005, oep_params=params,ecw_method='hf', mf_method = 'hf')

umat = theDMFET.embedding_potential()

t3 = tools.timer("sdmfet", t2)
t4 = tools.timer("total calc", t0)
#INFO: ******************** input file end ********************


System: ('Linux', 'tiger-i26c2n6', '3.10.0-693.21.1.el7.x86_64', '#1 SMP Wed Mar 7 15:59:45 EST 2018', 'x86_64', 'x86_64')  Threads 20
Python 2.7.14 |Anaconda, Inc.| (default, Oct 16 2017, 17:29:19) 
[GCC 7.2.0]
numpy 1.14.3  scipy 1.1.0
Date: Fri Jun  8 01:01:32 2018
PySCF version 1.4.2
PySCF path  /tigress/xingz/pyscf/pyscf
GIT ORIG_HEAD e0edd131499dcc18d035a120533a8a1ddda110d4
GIT HEAD      e0edd131499dcc18d035a120533a8a1ddda110d4

[INPUT] VERBOSE 4
[INPUT] num atoms = 36
[INPUT] num electrons = 156
[INPUT] charge = 0
[INPUT] spin (= nelec alpha-beta = 2S) = 0
[INPUT] symmetry False subgroup None
[INPUT]  1 C      1.415320497700  -0.177993684600  -0.000000487000 AA    2.674568119136  -0.336359315796  -0.000000920297 Bohr
[INPUT]  2 C      0.861807271800   1.136706279200  -0.000000371500 AA    1.628579715861   2.148063551761  -0.000000702033 Bohr
[INPUT]  3 C     -0.553513280300   1.314699898400  -0.000000217100 AA   -1.045988506077   2.484422743970  -0.000000410260 Bohr
[INPUT]  4 C     -1.415320263800   0.177993421000  -0.000000324800 AA   -2.674567677129   0.336358817664  -0.000000613783 Bohr
[INPUT]  5 C     -0.861806934900  -1.136706814200  -0.000000327000 AA   -1.628579079212  -2.148064562765  -0.000000617940 Bohr
[INPUT]  6 C      0.553513335800  -1.314700392500  -0.000000388600 AA    1.045988610956  -2.484423677683  -0.000000734348 Bohr
[INPUT]  7 C      2.802009726300  -0.352386493300  -0.000000562400 AA    5.295030981075  -0.665913962333  -0.000001062782 Bohr
[INPUT]  8 C      1.706180444400   2.250417912600  -0.000000300500 AA    3.224213759005   4.252673520629  -0.000000567863 Bohr
[INPUT]  9 C     -1.095829214200   2.602804359600  -0.000000034500 AA   -2.070817094135   4.918587395468  -0.000000065196 Bohr
[INPUT] 10 C     -2.802009489000   0.352386303300  -0.000000235900 AA   -5.295030532642   0.665913603285  -0.000000445786 Bohr
[INPUT] 11 C     -1.706180135000  -2.250418425800  -0.000000115000 AA   -3.224213174323  -4.252674490437  -0.000000217319 Bohr
[INPUT] 12 C      1.095829295600  -2.602804856900  -0.000000442500 AA    2.070817247959  -4.918588335229  -0.000000836204 Bohr
[INPUT] 13 C      3.641071516800   0.798615217100  -0.000000325600 AA    6.880627966707   1.509164039229  -0.000000615295 Bohr
[INPUT] 14 C      3.115829545600   2.046165462900  -0.000000188300 AA    5.888064492012   3.866692330425  -0.000000355835 Bohr
[INPUT] 15 C      1.128914423200   3.552568005700  -0.000000066100 AA    2.133339077919   6.713380569665  -0.000000124911 Bohr
[INPUT] 16 C     -0.214116480800   3.721470304900  -0.000000071600 AA   -0.404621507468   7.032559656963  -0.000000135304 Bohr
[INPUT] 17 C     -2.512156869300   2.753952435900   0.000000049200 AA   -4.747288464922   5.204215863930   0.000000092975 Bohr
[INPUT] 18 C     -3.329946158300   1.675304481100   0.000000000000 AA   -6.292686248735   3.165866644536   0.000000000000 Bohr
[INPUT] 19 C     -3.641071477100  -0.798615740400  -0.000000021800 AA   -6.880627891685  -1.509165028123  -0.000000041196 Bohr
[INPUT] 20 C     -3.115829619100  -2.046165784500  -0.000000067300 AA   -5.888064630907  -3.866692938161  -0.000000127179 Bohr
[INPUT] 21 C     -1.128914345700  -3.552568195500   0.000000074500 AA   -2.133338931466  -6.713380928335   0.000000140785 Bohr
[INPUT] 22 C      0.214116860500  -3.721470555300  -0.000000182200 AA    0.404622224997  -7.032560130150  -0.000000344308 Bohr
[INPUT] 23 C      2.512157333900  -2.753952876500  -0.000000801300 AA    4.747289342889  -5.204216696543  -0.000001514238 Bohr
[INPUT] 24 C      3.329946487400  -1.675305058400  -0.000000823100 AA    6.292686870643  -3.165867735474  -0.000001555434 Bohr
[INPUT] 25 H      4.708051862200   0.660833334800  -0.000000257400 AA    8.896928599807   1.248794016755  -0.000000486416 Bohr
[INPUT] 26 H      3.762955519400   2.905618137400   0.000000148200 AA    7.110955350586   5.490822502255   0.000000280057 Bohr
[INPUT] 27 H      1.781727460400   4.407708975500  -0.000000120700 AA    3.366976928773   8.329362800482  -0.000000228090 Bohr
[INPUT] 28 H     -0.634861498500   4.711624103600   0.000000049100 AA   -1.199714359196   8.903679157703   0.000000092786 Bohr
[INPUT] 29 H     -2.926324340500   3.746875502600   0.000000306600 AA   -5.529951555193   7.080568522756   0.000000579390 Bohr
[INPUT] 30 H     -4.397816973200   1.806005788500  -0.000000010000 AA   -8.310669625312   3.412856319644  -0.000000018897 Bohr
[INPUT] 31 H     -4.708051804400  -0.660833633300   0.000000151900 AA   -8.896928490580  -1.248794580838   0.000000287049 Bohr
[INPUT] 32 H     -3.762955463600  -2.905618556000   0.000000294100 AA   -7.110955245140  -5.490823293294   0.000000555768 Bohr
[INPUT] 33 H     -1.781727253600  -4.407709267800   0.000000274500 AA   -3.366976537977  -8.329363352849   0.000000518730 Bohr
[INPUT] 34 H      0.634861732700  -4.711624420700  -0.000000313500 AA    1.199714801770  -8.903679756936  -0.000000592429 Bohr
[INPUT] 35 H      2.926324614300  -3.746876032700  -0.000000832200 AA    5.529952072600  -7.080569524500  -0.000001572630 Bohr
[INPUT] 36 H      4.397817333700  -1.806006119400  -0.000000949800 AA    8.310670306558  -3.412856944955  -0.000001794862 Bohr
[INPUT] ---------------- BASIS SET ---------------- 
[INPUT] l, kappa, [nprim/nctr], expnt,             c_1 c_2 ...
[INPUT] H
[INPUT] 0    0    [3    /1   ]  13.01             0.019685
                                1.962             0.137977
                                0.4446            0.478148
[INPUT] 0    0    [1    /1   ]  0.122                1
[INPUT] 1    0    [1    /1   ]  0.727                1
[INPUT] C
[INPUT] 0    0    [8    /2   ]  6665              0.000692 -0.000146
                                1000              0.005329 -0.001154
                                228               0.027077 -0.005725
                                64.71             0.101718 -0.023312
                                21.06             0.27474 -0.063955
                                7.495             0.448564 -0.149981
                                2.797             0.285074 -0.127262
                                0.5215            0.015204 0.544529
[INPUT] 0    0    [1    /1   ]  0.1596               1
[INPUT] 1    0    [3    /1   ]  9.439             0.038109
                                2.002             0.20948
                                0.5456            0.508557
[INPUT] 1    0    [1    /1   ]  0.1517               1
[INPUT] 2    0    [1    /1   ]  0.55                 1
nuclear repulsion = 1841.65162699792
number of shells = 156
number of NR pGTOs = 708
number of NR cGTOs = 396
basis = ccpvdz
ecp = {}
CPU time:         2.45


******** <class 'pyscf.scf.hf.RHF'> flags ********
method = RHF
initial guess = minao
damping factor = 0
level shift factor = 0
DIIS = <class 'pyscf.scf.diis.CDIIS'>
DIIS start cycle = 1
DIIS space = 8
SCF tol = 1e-09
SCF gradient tol = None
max. SCF cycles = 100
direct_scf = True
direct_scf_tol = 1e-13
chkfile to save SCF result = /tmp/tmpZvV7li
max_memory 24000 MB (current use 76 MB)
Set gradient conv threshold to 3.16228e-05
init E= -928.279384163143
  HOMO = -0.233174682809389  LUMO = -0.0627642276124263
cycle= 1 E= -915.775264166635  delta_E= 12.5  |g|= 0.77  |ddm|= 7.83
  HOMO = -0.253661334829703  LUMO = 0.0637382865599923
cycle= 2 E= -915.997277976262  delta_E= -0.222  |g|= 0.197  |ddm|= 2.24
  HOMO = -0.268265540282409  LUMO = 0.0555926066956202
cycle= 3 E= -916.014084490704  delta_E= -0.0168  |g|= 0.0474  |ddm|= 0.744
  HOMO = -0.260383946014356  LUMO = 0.0642728555462653
cycle= 4 E= -916.014854096323  delta_E= -0.00077  |g|= 0.011  |ddm|= 0.107
  HOMO = -0.261464233408346  LUMO = 0.0641568395622917
cycle= 5 E= -916.014954259808  delta_E= -0.0001  |g|= 0.00522  |ddm|= 0.028
  HOMO = -0.261810308859658  LUMO = 0.0644016380749489
cycle= 6 E= -916.014981310324  delta_E= -2.71e-05  |g|= 0.00223  |ddm|= 0.0138
  HOMO = -0.261830132714274  LUMO = 0.0648183400193255
cycle= 7 E= -916.014988149662  delta_E= -6.84e-06  |g|= 0.00111  |ddm|= 0.00958
  HOMO = -0.261919859427571  LUMO = 0.0648119186152606
cycle= 8 E= -916.014988686998  delta_E= -5.37e-07  |g|= 0.000183  |ddm|= 0.0021
  HOMO = -0.261952307895496  LUMO = 0.0647971375591017
cycle= 9 E= -916.014988706815  delta_E= -1.98e-08  |g|= 2.88e-05  |ddm|= 0.000752
  HOMO = -0.261951620150585  LUMO = 0.0647993488643879
cycle= 10 E= -916.014988707304  delta_E= -4.89e-10  |g|= 6.59e-06  |ddm|= 0.000106
  HOMO = -0.261952817437077  LUMO = 0.064798264035982
Extra cycle  E= -916.014988707311  delta_E= -6.82e-12  |g|= 3.06e-06  |ddm|= 1.41e-05
converged SCF energy = -916.014988707311
time of full scf : 1276.100  (cpu),  64.307  (wall) 
time of localize orbitals : 131.320  (cpu),  6.586  (wall) 
#INFO: **** input file is /tigress/xingz/pydmfet/examples/C24.py ****
from pydmfet import locints, sdmfet,oep,tools
from pyscf import gto, scf, ao2mo
import numpy as np
from pyscf.tools import molden
import time

bas = 'ccpvdz'

t0 = (time.clock(), time.time())
mol = gto.Mole()
mol.atom = open('C24.xyz').read()
mol.basis = bas
mol.charge = 0
mol.build(max_memory = 24000, verbose=4)

mf = scf.RHF(mol)
mf.max_cycle = 100

DMguess = None
mf.scf(dm0=DMguess)

t1 = tools.timer("full scf", t0)

myInts = locints.LocalIntegrals( mf, range( mol.nao_nr() ), 'meta_lowdin' )
#myInts.molden( 'hydrogen-loc.molden' )
myInts.TI_OK = False

t2 = tools.timer("localize orbitals", t1)

natoms = mol.natm
impAtom = np.zeros([natoms], dtype=int)
for i in range(6):
    impAtom[i] = 1


ghost_frag = 1-impAtom
ghost_env = 1-ghost_frag

mol_frag = gto.Mole()
mol_frag.atom = tools.add_ghost(mol.atom, ghost_frag)
mol_frag.basis = bas
mol_frag.build(max_memory = 24000,verbose = 4)

mol_env = gto.Mole()
mol_env.atom = tools.add_ghost(mol.atom, ghost_env)
mol_env.basis =  bas
mol_env.build(max_memory = 24000,verbose = 4)


aoslice = mol.aoslice_by_atom()
impurities = np.zeros([mol.nao_nr()], dtype = int)
for i in range(natoms):
    if(impAtom[i] == 1):
	impurities[aoslice[i,2]:aoslice[i,3]] = 1

Ne_frag = 42
boundary_atoms = np.zeros([natoms])
boundary_atoms[6:12]=1.0
boundary_atoms2 = np.zeros([natoms])
boundary_atoms2[:6] = -1.0

params = oep.OEPparams(algorithm = 'split', opt_method = 'L-BFGS-B', \
                       ftol = 1e-11, gtol = 5e-5,diffP_tol=5e-5, outer_maxit = 200, maxit = 200,l2_lambda = 0.0, oep_print = 0)
theDMFET = sdmfet.DMFET( mf, mol_frag, mol_env,myInts,impurities, impAtom, Ne_frag, boundary_atoms=boundary_atoms, boundary_atoms2=boundary_atoms2,\
                         dim_imp =71, dim_bath=71, dim_big =None, smear_sigma = 0.005, oep_params=params,ecw_method='hf', mf_method = 'hf')

umat = theDMFET.embedding_potential()

t3 = tools.timer("sdmfet", t2)
t4 = tools.timer("total calc", t0)
#INFO: ******************** input file end ********************


System: ('Linux', 'tiger-i26c2n6', '3.10.0-693.21.1.el7.x86_64', '#1 SMP Wed Mar 7 15:59:45 EST 2018', 'x86_64', 'x86_64')  Threads 20
Python 2.7.14 |Anaconda, Inc.| (default, Oct 16 2017, 17:29:19) 
[GCC 7.2.0]
numpy 1.14.3  scipy 1.1.0
Date: Fri Jun  8 01:02:43 2018
PySCF version 1.4.2
PySCF path  /tigress/xingz/pyscf/pyscf
GIT ORIG_HEAD e0edd131499dcc18d035a120533a8a1ddda110d4
GIT HEAD      e0edd131499dcc18d035a120533a8a1ddda110d4

[INPUT] VERBOSE 4
[INPUT] num atoms = 36
[INPUT] num electrons = 36
[INPUT] charge = 0
[INPUT] spin (= nelec alpha-beta = 2S) = 0
[INPUT] symmetry False subgroup None
[INPUT]  1 C      1.415320497700  -0.177993684600  -0.000000487000 AA    2.674568119136  -0.336359315796  -0.000000920297 Bohr
[INPUT]  2 C      0.861807271800   1.136706279200  -0.000000371500 AA    1.628579715861   2.148063551761  -0.000000702033 Bohr
[INPUT]  3 C     -0.553513280300   1.314699898400  -0.000000217100 AA   -1.045988506077   2.484422743970  -0.000000410260 Bohr
[INPUT]  4 C     -1.415320263800   0.177993421000  -0.000000324800 AA   -2.674567677129   0.336358817664  -0.000000613783 Bohr
[INPUT]  5 C     -0.861806934900  -1.136706814200  -0.000000327000 AA   -1.628579079212  -2.148064562765  -0.000000617940 Bohr
[INPUT]  6 C      0.553513335800  -1.314700392500  -0.000000388600 AA    1.045988610956  -2.484423677683  -0.000000734348 Bohr
[INPUT]  7 ghostC   2.802009726300  -0.352386493300  -0.000000562400 AA    5.295030981075  -0.665913962333  -0.000001062782 Bohr
[INPUT]  8 ghostC   1.706180444400   2.250417912600  -0.000000300500 AA    3.224213759005   4.252673520629  -0.000000567863 Bohr
[INPUT]  9 ghostC  -1.095829214200   2.602804359600  -0.000000034500 AA   -2.070817094135   4.918587395468  -0.000000065196 Bohr
[INPUT] 10 ghostC  -2.802009489000   0.352386303300  -0.000000235900 AA   -5.295030532642   0.665913603285  -0.000000445786 Bohr
[INPUT] 11 ghostC  -1.706180135000  -2.250418425800  -0.000000115000 AA   -3.224213174323  -4.252674490437  -0.000000217319 Bohr
[INPUT] 12 ghostC   1.095829295600  -2.602804856900  -0.000000442500 AA    2.070817247959  -4.918588335229  -0.000000836204 Bohr
[INPUT] 13 ghostC   3.641071516800   0.798615217100  -0.000000325600 AA    6.880627966707   1.509164039229  -0.000000615295 Bohr
[INPUT] 14 ghostC   3.115829545600   2.046165462900  -0.000000188300 AA    5.888064492012   3.866692330425  -0.000000355835 Bohr
[INPUT] 15 ghostC   1.128914423200   3.552568005700  -0.000000066100 AA    2.133339077919   6.713380569665  -0.000000124911 Bohr
[INPUT] 16 ghostC  -0.214116480800   3.721470304900  -0.000000071600 AA   -0.404621507468   7.032559656963  -0.000000135304 Bohr
[INPUT] 17 ghostC  -2.512156869300   2.753952435900   0.000000049200 AA   -4.747288464922   5.204215863930   0.000000092975 Bohr
[INPUT] 18 ghostC  -3.329946158300   1.675304481100   0.000000000000 AA   -6.292686248735   3.165866644536   0.000000000000 Bohr
[INPUT] 19 ghostC  -3.641071477100  -0.798615740400  -0.000000021800 AA   -6.880627891685  -1.509165028123  -0.000000041196 Bohr
[INPUT] 20 ghostC  -3.115829619100  -2.046165784500  -0.000000067300 AA   -5.888064630907  -3.866692938161  -0.000000127179 Bohr
[INPUT] 21 ghostC  -1.128914345700  -3.552568195500   0.000000074500 AA   -2.133338931466  -6.713380928335   0.000000140785 Bohr
[INPUT] 22 ghostC   0.214116860500  -3.721470555300  -0.000000182200 AA    0.404622224997  -7.032560130150  -0.000000344308 Bohr
[INPUT] 23 ghostC   2.512157333900  -2.753952876500  -0.000000801300 AA    4.747289342889  -5.204216696543  -0.000001514238 Bohr
[INPUT] 24 ghostC   3.329946487400  -1.675305058400  -0.000000823100 AA    6.292686870643  -3.165867735474  -0.000001555434 Bohr
[INPUT] 25 ghostH   4.708051862200   0.660833334800  -0.000000257400 AA    8.896928599807   1.248794016755  -0.000000486416 Bohr
[INPUT] 26 ghostH   3.762955519400   2.905618137400   0.000000148200 AA    7.110955350586   5.490822502255   0.000000280057 Bohr
[INPUT] 27 ghostH   1.781727460400   4.407708975500  -0.000000120700 AA    3.366976928773   8.329362800482  -0.000000228090 Bohr
[INPUT] 28 ghostH  -0.634861498500   4.711624103600   0.000000049100 AA   -1.199714359196   8.903679157703   0.000000092786 Bohr
[INPUT] 29 ghostH  -2.926324340500   3.746875502600   0.000000306600 AA   -5.529951555193   7.080568522756   0.000000579390 Bohr
[INPUT] 30 ghostH  -4.397816973200   1.806005788500  -0.000000010000 AA   -8.310669625312   3.412856319644  -0.000000018897 Bohr
[INPUT] 31 ghostH  -4.708051804400  -0.660833633300   0.000000151900 AA   -8.896928490580  -1.248794580838   0.000000287049 Bohr
[INPUT] 32 ghostH  -3.762955463600  -2.905618556000   0.000000294100 AA   -7.110955245140  -5.490823293294   0.000000555768 Bohr
[INPUT] 33 ghostH  -1.781727253600  -4.407709267800   0.000000274500 AA   -3.366976537977  -8.329363352849   0.000000518730 Bohr
[INPUT] 34 ghostH   0.634861732700  -4.711624420700  -0.000000313500 AA    1.199714801770  -8.903679756936  -0.000000592429 Bohr
[INPUT] 35 ghostH   2.926324614300  -3.746876032700  -0.000000832200 AA    5.529952072600  -7.080569524500  -0.000001572630 Bohr
[INPUT] 36 ghostH   4.397817333700  -1.806006119400  -0.000000949800 AA    8.310670306558  -3.412856944955  -0.000001794862 Bohr
[INPUT] ---------------- BASIS SET ---------------- 
[INPUT] l, kappa, [nprim/nctr], expnt,             c_1 c_2 ...
[INPUT] ghostH
[INPUT] 0    0    [3    /1   ]  13.01             0.019685
                                1.962             0.137977
                                0.4446            0.478148
[INPUT] 0    0    [1    /1   ]  0.122                1
[INPUT] 1    0    [1    /1   ]  0.727                1
[INPUT] C
[INPUT] 0    0    [8    /2   ]  6665              0.000692 -0.000146
                                1000              0.005329 -0.001154
                                228               0.027077 -0.005725
                                64.71             0.101718 -0.023312
                                21.06             0.27474 -0.063955
                                7.495             0.448564 -0.149981
                                2.797             0.285074 -0.127262
                                0.5215            0.015204 0.544529
[INPUT] 0    0    [1    /1   ]  0.1596               1
[INPUT] 1    0    [3    /1   ]  9.439             0.038109
                                2.002             0.20948
                                0.5456            0.508557
[INPUT] 1    0    [1    /1   ]  0.1517               1
[INPUT] 2    0    [1    /1   ]  0.55                 1
[INPUT] ghostC
[INPUT] 0    0    [8    /2   ]  6665              0.000692 -0.000146
                                1000              0.005329 -0.001154
                                228               0.027077 -0.005725
                                64.71             0.101718 -0.023312
                                21.06             0.27474 -0.063955
                                7.495             0.448564 -0.149981
                                2.797             0.285074 -0.127262
                                0.5215            0.015204 0.544529
[INPUT] 0    0    [1    /1   ]  0.1596               1
[INPUT] 1    0    [3    /1   ]  9.439             0.038109
                                2.002             0.20948
                                0.5456            0.508557
[INPUT] 1    0    [1    /1   ]  0.1517               1
[INPUT] 2    0    [1    /1   ]  0.55                 1
nuclear repulsion = 146.424716321834
number of shells = 156
number of NR pGTOs = 708
number of NR cGTOs = 396
basis = ccpvdz
ecp = {}
CPU time:      1410.98
#INFO: **** input file is /tigress/xingz/pydmfet/examples/C24.py ****
from pydmfet import locints, sdmfet,oep,tools
from pyscf import gto, scf, ao2mo
import numpy as np
from pyscf.tools import molden
import time

bas = 'ccpvdz'

t0 = (time.clock(), time.time())
mol = gto.Mole()
mol.atom = open('C24.xyz').read()
mol.basis = bas
mol.charge = 0
mol.build(max_memory = 24000, verbose=4)

mf = scf.RHF(mol)
mf.max_cycle = 100

DMguess = None
mf.scf(dm0=DMguess)

t1 = tools.timer("full scf", t0)

myInts = locints.LocalIntegrals( mf, range( mol.nao_nr() ), 'meta_lowdin' )
#myInts.molden( 'hydrogen-loc.molden' )
myInts.TI_OK = False

t2 = tools.timer("localize orbitals", t1)

natoms = mol.natm
impAtom = np.zeros([natoms], dtype=int)
for i in range(6):
    impAtom[i] = 1


ghost_frag = 1-impAtom
ghost_env = 1-ghost_frag

mol_frag = gto.Mole()
mol_frag.atom = tools.add_ghost(mol.atom, ghost_frag)
mol_frag.basis = bas
mol_frag.build(max_memory = 24000,verbose = 4)

mol_env = gto.Mole()
mol_env.atom = tools.add_ghost(mol.atom, ghost_env)
mol_env.basis =  bas
mol_env.build(max_memory = 24000,verbose = 4)


aoslice = mol.aoslice_by_atom()
impurities = np.zeros([mol.nao_nr()], dtype = int)
for i in range(natoms):
    if(impAtom[i] == 1):
	impurities[aoslice[i,2]:aoslice[i,3]] = 1

Ne_frag = 42
boundary_atoms = np.zeros([natoms])
boundary_atoms[6:12]=1.0
boundary_atoms2 = np.zeros([natoms])
boundary_atoms2[:6] = -1.0

params = oep.OEPparams(algorithm = 'split', opt_method = 'L-BFGS-B', \
                       ftol = 1e-11, gtol = 5e-5,diffP_tol=5e-5, outer_maxit = 200, maxit = 200,l2_lambda = 0.0, oep_print = 0)
theDMFET = sdmfet.DMFET( mf, mol_frag, mol_env,myInts,impurities, impAtom, Ne_frag, boundary_atoms=boundary_atoms, boundary_atoms2=boundary_atoms2,\
                         dim_imp =71, dim_bath=71, dim_big =None, smear_sigma = 0.005, oep_params=params,ecw_method='hf', mf_method = 'hf')

umat = theDMFET.embedding_potential()

t3 = tools.timer("sdmfet", t2)
t4 = tools.timer("total calc", t0)
#INFO: ******************** input file end ********************


System: ('Linux', 'tiger-i26c2n6', '3.10.0-693.21.1.el7.x86_64', '#1 SMP Wed Mar 7 15:59:45 EST 2018', 'x86_64', 'x86_64')  Threads 20
Python 2.7.14 |Anaconda, Inc.| (default, Oct 16 2017, 17:29:19) 
[GCC 7.2.0]
numpy 1.14.3  scipy 1.1.0
Date: Fri Jun  8 01:02:43 2018
PySCF version 1.4.2
PySCF path  /tigress/xingz/pyscf/pyscf
GIT ORIG_HEAD e0edd131499dcc18d035a120533a8a1ddda110d4
GIT HEAD      e0edd131499dcc18d035a120533a8a1ddda110d4

[INPUT] VERBOSE 4
[INPUT] num atoms = 36
[INPUT] num electrons = 120
[INPUT] charge = 0
[INPUT] spin (= nelec alpha-beta = 2S) = 0
[INPUT] symmetry False subgroup None
[INPUT]  1 ghostC   1.415320497700  -0.177993684600  -0.000000487000 AA    2.674568119136  -0.336359315796  -0.000000920297 Bohr
[INPUT]  2 ghostC   0.861807271800   1.136706279200  -0.000000371500 AA    1.628579715861   2.148063551761  -0.000000702033 Bohr
[INPUT]  3 ghostC  -0.553513280300   1.314699898400  -0.000000217100 AA   -1.045988506077   2.484422743970  -0.000000410260 Bohr
[INPUT]  4 ghostC  -1.415320263800   0.177993421000  -0.000000324800 AA   -2.674567677129   0.336358817664  -0.000000613783 Bohr
[INPUT]  5 ghostC  -0.861806934900  -1.136706814200  -0.000000327000 AA   -1.628579079212  -2.148064562765  -0.000000617940 Bohr
[INPUT]  6 ghostC   0.553513335800  -1.314700392500  -0.000000388600 AA    1.045988610956  -2.484423677683  -0.000000734348 Bohr
[INPUT]  7 C      2.802009726300  -0.352386493300  -0.000000562400 AA    5.295030981075  -0.665913962333  -0.000001062782 Bohr
[INPUT]  8 C      1.706180444400   2.250417912600  -0.000000300500 AA    3.224213759005   4.252673520629  -0.000000567863 Bohr
[INPUT]  9 C     -1.095829214200   2.602804359600  -0.000000034500 AA   -2.070817094135   4.918587395468  -0.000000065196 Bohr
[INPUT] 10 C     -2.802009489000   0.352386303300  -0.000000235900 AA   -5.295030532642   0.665913603285  -0.000000445786 Bohr
[INPUT] 11 C     -1.706180135000  -2.250418425800  -0.000000115000 AA   -3.224213174323  -4.252674490437  -0.000000217319 Bohr
[INPUT] 12 C      1.095829295600  -2.602804856900  -0.000000442500 AA    2.070817247959  -4.918588335229  -0.000000836204 Bohr
[INPUT] 13 C      3.641071516800   0.798615217100  -0.000000325600 AA    6.880627966707   1.509164039229  -0.000000615295 Bohr
[INPUT] 14 C      3.115829545600   2.046165462900  -0.000000188300 AA    5.888064492012   3.866692330425  -0.000000355835 Bohr
[INPUT] 15 C      1.128914423200   3.552568005700  -0.000000066100 AA    2.133339077919   6.713380569665  -0.000000124911 Bohr
[INPUT] 16 C     -0.214116480800   3.721470304900  -0.000000071600 AA   -0.404621507468   7.032559656963  -0.000000135304 Bohr
[INPUT] 17 C     -2.512156869300   2.753952435900   0.000000049200 AA   -4.747288464922   5.204215863930   0.000000092975 Bohr
[INPUT] 18 C     -3.329946158300   1.675304481100   0.000000000000 AA   -6.292686248735   3.165866644536   0.000000000000 Bohr
[INPUT] 19 C     -3.641071477100  -0.798615740400  -0.000000021800 AA   -6.880627891685  -1.509165028123  -0.000000041196 Bohr
[INPUT] 20 C     -3.115829619100  -2.046165784500  -0.000000067300 AA   -5.888064630907  -3.866692938161  -0.000000127179 Bohr
[INPUT] 21 C     -1.128914345700  -3.552568195500   0.000000074500 AA   -2.133338931466  -6.713380928335   0.000000140785 Bohr
[INPUT] 22 C      0.214116860500  -3.721470555300  -0.000000182200 AA    0.404622224997  -7.032560130150  -0.000000344308 Bohr
[INPUT] 23 C      2.512157333900  -2.753952876500  -0.000000801300 AA    4.747289342889  -5.204216696543  -0.000001514238 Bohr
[INPUT] 24 C      3.329946487400  -1.675305058400  -0.000000823100 AA    6.292686870643  -3.165867735474  -0.000001555434 Bohr
[INPUT] 25 H      4.708051862200   0.660833334800  -0.000000257400 AA    8.896928599807   1.248794016755  -0.000000486416 Bohr
[INPUT] 26 H      3.762955519400   2.905618137400   0.000000148200 AA    7.110955350586   5.490822502255   0.000000280057 Bohr
[INPUT] 27 H      1.781727460400   4.407708975500  -0.000000120700 AA    3.366976928773   8.329362800482  -0.000000228090 Bohr
[INPUT] 28 H     -0.634861498500   4.711624103600   0.000000049100 AA   -1.199714359196   8.903679157703   0.000000092786 Bohr
[INPUT] 29 H     -2.926324340500   3.746875502600   0.000000306600 AA   -5.529951555193   7.080568522756   0.000000579390 Bohr
[INPUT] 30 H     -4.397816973200   1.806005788500  -0.000000010000 AA   -8.310669625312   3.412856319644  -0.000000018897 Bohr
[INPUT] 31 H     -4.708051804400  -0.660833633300   0.000000151900 AA   -8.896928490580  -1.248794580838   0.000000287049 Bohr
[INPUT] 32 H     -3.762955463600  -2.905618556000   0.000000294100 AA   -7.110955245140  -5.490823293294   0.000000555768 Bohr
[INPUT] 33 H     -1.781727253600  -4.407709267800   0.000000274500 AA   -3.366976537977  -8.329363352849   0.000000518730 Bohr
[INPUT] 34 H      0.634861732700  -4.711624420700  -0.000000313500 AA    1.199714801770  -8.903679756936  -0.000000592429 Bohr
[INPUT] 35 H      2.926324614300  -3.746876032700  -0.000000832200 AA    5.529952072600  -7.080569524500  -0.000001572630 Bohr
[INPUT] 36 H      4.397817333700  -1.806006119400  -0.000000949800 AA    8.310670306558  -3.412856944955  -0.000001794862 Bohr
[INPUT] ---------------- BASIS SET ---------------- 
[INPUT] l, kappa, [nprim/nctr], expnt,             c_1 c_2 ...
[INPUT] H
[INPUT] 0    0    [3    /1   ]  13.01             0.019685
                                1.962             0.137977
                                0.4446            0.478148
[INPUT] 0    0    [1    /1   ]  0.122                1
[INPUT] 1    0    [1    /1   ]  0.727                1
[INPUT] ghostC
[INPUT] 0    0    [8    /2   ]  6665              0.000692 -0.000146
                                1000              0.005329 -0.001154
                                228               0.027077 -0.005725
                                64.71             0.101718 -0.023312
                                21.06             0.27474 -0.063955
                                7.495             0.448564 -0.149981
                                2.797             0.285074 -0.127262
                                0.5215            0.015204 0.544529
[INPUT] 0    0    [1    /1   ]  0.1596               1
[INPUT] 1    0    [3    /1   ]  9.439             0.038109
                                2.002             0.20948
                                0.5456            0.508557
[INPUT] 1    0    [1    /1   ]  0.1517               1
[INPUT] 2    0    [1    /1   ]  0.55                 1
[INPUT] C
[INPUT] 0    0    [8    /2   ]  6665              0.000692 -0.000146
                                1000              0.005329 -0.001154
                                228               0.027077 -0.005725
                                64.71             0.101718 -0.023312
                                21.06             0.27474 -0.063955
                                7.495             0.448564 -0.149981
                                2.797             0.285074 -0.127262
                                0.5215            0.015204 0.544529
[INPUT] 0    0    [1    /1   ]  0.1596               1
[INPUT] 1    0    [3    /1   ]  9.439             0.038109
                                2.002             0.20948
                                0.5456            0.508557
[INPUT] 1    0    [1    /1   ]  0.1517               1
[INPUT] 2    0    [1    /1   ]  0.55                 1
nuclear repulsion = 1000.43098978946
number of shells = 156
number of NR pGTOs = 708
number of NR cGTOs = 396
basis = ccpvdz
ecp = {}
CPU time:      1412.01
mo energy:
[-11.2484317  -11.24809503 -11.24809503 -11.24765695 -11.24765695
 -11.24756944 -11.24701019 -11.24688679 -11.24688679 -11.24632943
 -11.24632943 -11.24592604 -11.24174709 -11.24172335 -11.24172335
 -11.24167319 -11.24167319 -11.2416465  -11.2402748  -11.24025185
 -11.24025184 -11.24020914 -11.24020914 -11.24018923  -1.22121455
  -1.1758537   -1.17585369  -1.11593765  -1.11593764  -1.09205285
  -1.05715499  -1.03495105  -1.01686462  -1.0168646   -0.97600462
  -0.97600461  -0.8658099   -0.86580989  -0.86513694  -0.86513693
  -0.85364989  -0.77592216  -0.76963321  -0.74100003  -0.74100001
  -0.72891525  -0.70591379  -0.65538405  -0.65538404  -0.63762591
  -0.6376259   -0.63476888  -0.63476887  -0.59804746  -0.59029009
  -0.59029008  -0.5842125   -0.58057235  -0.56881799  -0.56881799
  -0.53355534  -0.52764533  -0.52434302  -0.52434301  -0.51312373
  -0.51148404  -0.51148403  -0.45926863  -0.45926861  -0.44866651
  -0.44866651  -0.42168655  -0.36969813  -0.34678122  -0.33293336
  -0.33293334  -0.26195265  -0.26195264   0.06479849   0.06479849
   0.11886885   0.11886886   0.13667301   0.18079993   0.18302834
   0.19094104   0.19094104   0.20604211   0.20604212   0.21942289
   0.22129964   0.2337903    0.25171907   0.25171908   0.26838685
   0.26838686   0.28693704   0.28693704   0.30873754   0.36402075
   0.38237973   0.38237974   0.39565052   0.39565052   0.42041327
   0.42936102   0.42936104   0.45853077   0.460462     0.46046204
   0.4624067    0.46240671   0.49206226   0.49206227   0.50457553
   0.51026896   0.51026896   0.51915065   0.58393736   0.59861
   0.61817388   0.63083842   0.64520828   0.64520829   0.65280018
   0.65291529   0.65326837   0.66826616   0.66826617   0.6690124
   0.66901241   0.68476252   0.68476253   0.69765588   0.69765591
   0.6997894    0.69978941   0.70172485   0.70406732   0.71421504
   0.71421506   0.7150759    0.73352974   0.73725201   0.74681495
   0.74681496   0.74788211   0.75470776   0.76534806   0.76534806
   0.76756047   0.76756047   0.76836311   0.76836311   0.77619982
   0.77619984   0.7797197    0.7799104    0.77991043   0.80068753
   0.80068753   0.83004706   0.83460317   0.83961225   0.83961225
   0.86727307   0.86727308   0.86801843   0.86961094   0.90553842
   0.90553843   0.91573966   0.91721832   0.91721832   0.92731115
   0.93828849   0.9382885    0.93942415   0.97128863   0.97128864
   0.97795686   0.97795688   0.9966857    1.00254258   1.00494059
   1.04168993   1.04168995   1.06579341   1.07895853   1.07895854
   1.08291254   1.11734635   1.11734636   1.12575996   1.12575996
   1.13649165   1.13703956   1.13703959   1.1370975    1.1370975
   1.13825077   1.13825079   1.17651307   1.17672683   1.19367288
   1.19367291   1.19443766   1.20000078   1.20000079   1.20577049
   1.20591518   1.2059152    1.21132426   1.22325779   1.2232578
   1.23819164   1.2386944    1.25995631   1.27006121   1.27087034
   1.27087035   1.27529391   1.30377519   1.3037752    1.3108777
   1.31087771   1.31134309   1.31134311   1.33025596   1.35504821
   1.35504822   1.38061082   1.38061083   1.40979147   1.41888693
   1.41888694   1.44032319   1.4918225    1.54738262   1.61051286
   1.61051288   1.62055548   1.6205555    1.62055982   1.62362461
   1.62449674   1.62714717   1.63179255   1.63179258   1.66149435
   1.66149435   1.68148193   1.68824625   1.68824626   1.69473368
   1.69473369   1.70050705   1.71162871   1.72022895   1.72022898
   1.75179184   1.75179185   1.75481918   1.7548192    1.78760645
   1.78760647   1.79984977   1.82019436   1.82019437   1.851923
   1.85192301   1.8667794    1.87004558   1.8700456    1.87063359
   1.87817373   1.87817376   1.88327212   1.8882759    1.90751007
   1.91847081   1.94469667   1.94469668   1.9494024    1.96912161
   1.96912166   1.97101365   1.98833958   1.98833958   1.99602742
   1.99602744   2.0167256    2.0167256    2.02058872   2.02737838
   2.02737841   2.04003287   2.04003289   2.04353677   2.04353681
   2.05981773   2.05981776   2.06092167   2.07647188   2.07874046
   2.07874047   2.07908551   2.07908553   2.1023646    2.1259071
   2.1259071    2.12702007   2.13367311   2.14433576   2.1502591
   2.15025912   2.16117421   2.17128533   2.17128535   2.1782077
   2.19712356   2.21910792   2.21910793   2.22687486   2.23438813
   2.27442907   2.27442911   2.28878488   2.29801799   2.32713249
   2.3271325    2.3512587    2.35125873   2.36933697   2.36933698
   2.3895371    2.43289189   2.43289191   2.44643197   2.44643199
   2.447973     2.46586232   2.47648306   2.47985983   2.47985984
   2.49806657   2.49806658   2.52326866   2.52326866   2.55496387
   2.5549639    2.56624215   2.56624216   2.57876673   2.58276656
   2.64998265   2.68358456   2.6835846    2.68630078   2.7526538
   2.75265382   2.77067074   2.77067075   2.77893698   2.78189022
   2.85504253   2.86117563   2.86117564   2.89251937   2.8925194
   2.94084358   2.96789485   2.99262629   2.9926263    3.03102519
   3.03102521   3.03431336   3.08254429   3.08254433   3.13752076
   3.1557171    3.15571715   3.18969365   3.18969365   3.20835321
   3.21018287   3.22606173   3.22606176   3.3989309    3.61960029
   3.73358311   3.73358314   3.84398079   3.84398084   3.88100556
   4.03653801]
Ne_frag_loc =  36.00146889262095
Ne_env_loc =  119.99853110737904
occ_imp
[9.79115208e-01 1.03157216e+00 1.03157218e+00 9.54688581e-01
 9.54688563e-01 1.07335141e+00 1.60372228e+00 1.60372244e+00
 3.80838344e-01 3.80838189e-01 1.84064119e+00 1.53854892e-01
 1.97334344e+00 1.98435216e+00 1.98435217e+00 1.35362212e-02
 1.35362159e-02 1.11874715e-02 1.11874712e-02 8.90922714e-03
 3.75115026e-03 3.47677205e-03 1.99689935e+00 1.99689935e+00
 2.88681838e-03 1.88629572e-03 1.88629570e-03 1.73547993e-03
 1.99828741e+00 1.14935308e-03 1.14935270e-03 5.22985076e-04
 5.22984984e-04 2.02305048e-04 2.02304954e-04 1.86435788e-04
 1.86435690e-04 1.55818211e-04 7.33746816e-05 7.33746495e-05
 4.53664781e-05 4.53664759e-05 4.35448935e-05 4.35448874e-05
 4.23942560e-05 2.81065978e-05 2.70682389e-05 2.37423892e-05
 1.77364832e-05 1.48823502e-05 1.48823461e-05 1.99998637e+00
 8.97338449e-06 8.97338288e-06 1.99999272e+00 1.99999272e+00
 1.99999521e+00 1.99999521e+00 1.99999666e+00 1.66701985e-06
 8.07327894e-08 5.05193843e-08 5.05193753e-08 3.18522224e-08
 3.18522123e-08 1.94057144e-08 1.12697095e-08 1.12696929e-08
 7.78058515e-09 4.59500308e-09 4.59499644e-09 0.00000000e+00
 0.00000000e+00 0.00000000e+00 0.00000000e+00 0.00000000e+00
 0.00000000e+00 0.00000000e+00 0.00000000e+00 0.00000000e+00
 0.00000000e+00 0.00000000e+00 0.00000000e+00 0.00000000e+00]
occ_bath
[1.02088479e+00 9.68427842e-01 9.68427821e-01 1.04531142e+00
 1.04531144e+00 9.26648592e-01 3.96277725e-01 3.96277560e-01
 1.61916166e+00 1.61916181e+00 1.59358809e-01 1.84614511e+00
 2.66565580e-02 1.56478369e-02 1.56478328e-02 1.98646378e+00
 1.98646378e+00 1.98881253e+00 1.98881253e+00 1.99109077e+00
 1.99624885e+00 1.99652323e+00 3.10064955e-03 3.10064920e-03
 1.99711318e+00 1.99811370e+00 1.99811370e+00 1.99826452e+00
 1.71259370e-03 1.99885065e+00 1.99885065e+00 1.99947701e+00
 1.99947702e+00 1.99979769e+00 1.99979770e+00 1.99981356e+00
 1.99981356e+00 1.99984418e+00 1.99992663e+00 1.99992663e+00
 1.99995463e+00 1.99995463e+00 1.99995646e+00 1.99995646e+00
 1.99995761e+00 1.99997189e+00 1.99997293e+00 1.99997626e+00
 1.99998226e+00 1.99998512e+00 1.99998512e+00 1.36266685e-05
 1.99999103e+00 1.99999103e+00 7.27987653e-06 7.27987595e-06
 4.79227881e-06 4.79227855e-06 3.34055435e-06 1.99999833e+00
 1.99999992e+00 1.99999995e+00 1.99999995e+00 1.99999997e+00
 1.99999997e+00 1.99999998e+00 1.99999999e+00 1.99999999e+00
 1.99999999e+00 2.00000000e+00 2.00000000e+00 2.00000000e+00
 2.00000000e+00 2.00000000e+00 2.00000000e+00 2.00000000e+00
 2.00000000e+00 2.00000000e+00 0.00000000e+00 0.00000000e+00
 0.00000000e+00 0.00000000e+00 0.00000000e+00 0.00000000e+00
 0.00000000e+00 0.00000000e+00 0.00000000e+00 0.00000000e+00
 0.00000000e+00 0.00000000e+00 0.00000000e+00 0.00000000e+00
 0.00000000e+00 0.00000000e+00 0.00000000e+00 0.00000000e+00
 0.00000000e+00 0.00000000e+00 0.00000000e+00 0.00000000e+00
 0.00000000e+00 0.00000000e+00 0.00000000e+00 0.00000000e+00
 0.00000000e+00 0.00000000e+00 0.00000000e+00 0.00000000e+00
 0.00000000e+00 0.00000000e+00 0.00000000e+00 0.00000000e+00
 0.00000000e+00 0.00000000e+00 0.00000000e+00 0.00000000e+00
 0.00000000e+00 0.00000000e+00 0.00000000e+00 0.00000000e+00
 0.00000000e+00 0.00000000e+00 0.00000000e+00 0.00000000e+00
 0.00000000e+00 0.00000000e+00 0.00000000e+00 0.00000000e+00
 0.00000000e+00 0.00000000e+00 0.00000000e+00 0.00000000e+00
 0.00000000e+00 0.00000000e+00 0.00000000e+00 0.00000000e+00
 0.00000000e+00 0.00000000e+00 0.00000000e+00 0.00000000e+00
 0.00000000e+00 0.00000000e+00 0.00000000e+00 0.00000000e+00
 0.00000000e+00 0.00000000e+00 0.00000000e+00 0.00000000e+00
 0.00000000e+00 0.00000000e+00 0.00000000e+00 0.00000000e+00
 0.00000000e+00 0.00000000e+00 0.00000000e+00 0.00000000e+00
 0.00000000e+00 0.00000000e+00 0.00000000e+00 0.00000000e+00
 0.00000000e+00 0.00000000e+00 0.00000000e+00 0.00000000e+00
 0.00000000e+00 0.00000000e+00 0.00000000e+00 0.00000000e+00
 0.00000000e+00 0.00000000e+00 0.00000000e+00 0.00000000e+00
 0.00000000e+00 0.00000000e+00 0.00000000e+00 0.00000000e+00
 0.00000000e+00 0.00000000e+00 0.00000000e+00 0.00000000e+00
 0.00000000e+00 0.00000000e+00 0.00000000e+00 0.00000000e+00
 0.00000000e+00 0.00000000e+00 0.00000000e+00 0.00000000e+00
 0.00000000e+00 0.00000000e+00 0.00000000e+00 0.00000000e+00
 0.00000000e+00 0.00000000e+00 0.00000000e+00 0.00000000e+00
 0.00000000e+00 0.00000000e+00 0.00000000e+00 0.00000000e+00
 0.00000000e+00 0.00000000e+00 0.00000000e+00 0.00000000e+00
 0.00000000e+00 0.00000000e+00 0.00000000e+00 0.00000000e+00
 0.00000000e+00 0.00000000e+00 0.00000000e+00 0.00000000e+00
 0.00000000e+00 0.00000000e+00 0.00000000e+00 0.00000000e+00
 0.00000000e+00 0.00000000e+00 0.00000000e+00 0.00000000e+00
 0.00000000e+00 0.00000000e+00 0.00000000e+00 0.00000000e+00
 0.00000000e+00 0.00000000e+00 0.00000000e+00 0.00000000e+00
 0.00000000e+00 0.00000000e+00 0.00000000e+00 0.00000000e+00
 0.00000000e+00 0.00000000e+00 0.00000000e+00 0.00000000e+00
 0.00000000e+00 0.00000000e+00 0.00000000e+00 0.00000000e+00
 0.00000000e+00 0.00000000e+00 0.00000000e+00 0.00000000e+00
 0.00000000e+00 0.00000000e+00 0.00000000e+00 0.00000000e+00
 0.00000000e+00 0.00000000e+00 0.00000000e+00 0.00000000e+00
 0.00000000e+00 0.00000000e+00 0.00000000e+00 0.00000000e+00
 0.00000000e+00 0.00000000e+00 0.00000000e+00 0.00000000e+00
 0.00000000e+00 0.00000000e+00 0.00000000e+00 0.00000000e+00
 0.00000000e+00 0.00000000e+00 0.00000000e+00 0.00000000e+00
 0.00000000e+00 0.00000000e+00 0.00000000e+00 0.00000000e+00
 0.00000000e+00 0.00000000e+00 0.00000000e+00 0.00000000e+00
 0.00000000e+00 0.00000000e+00 0.00000000e+00 0.00000000e+00
 0.00000000e+00 0.00000000e+00 0.00000000e+00 0.00000000e+00
 0.00000000e+00 0.00000000e+00 0.00000000e+00 0.00000000e+00
 0.00000000e+00 0.00000000e+00 0.00000000e+00 0.00000000e+00
 0.00000000e+00 0.00000000e+00 0.00000000e+00 0.00000000e+00
 0.00000000e+00 0.00000000e+00 0.00000000e+00 0.00000000e+00
 0.00000000e+00 0.00000000e+00 0.00000000e+00 0.00000000e+00
 0.00000000e+00 0.00000000e+00 0.00000000e+00 0.00000000e+00
 0.00000000e+00 0.00000000e+00 0.00000000e+00 0.00000000e+00]
dimension of subspace: imp, bath 71 71
Ne_frag, Ne_env, Ne_core
42 100 14
|diffP| =  0.0
3.211609189893849
3.2139682871406863
time of coreJK_sub : 154.580  (cpu),  7.768  (wall) 
time of locints.dmet_tei : 581.330  (cpu),  37.890  (wall) 
time of libgen.build_subops : 741.930  (cpu),  45.960  (wall) 


******** <class 'pydmfet.qcwrap.pyscf_rks.rhf_pyscf'> flags ********
method = rhf_pyscf
initial guess = minao
damping factor = 0
level shift factor = 0.0
DIIS = <class 'pyscf.scf.diis.CDIIS'>
DIIS start cycle = 1
DIIS space = 8
SCF tol = 1e-09
SCF gradient tol = None
max. SCF cycles = 50
direct_scf = True
direct_scf_tol = 1e-13
chkfile to save SCF result = /tmp/tmpa2teAK
max_memory 24000 MB (current use 1722 MB)
Set gradient conv threshold to 3.16228e-05
init E= -2257.02227250824
HOMO: -0.2619526441140386 LUMO: 0.16543123009090185
-0.011952644114038624
[2. 2. 2. 2. 2. 2. 2. 2. 2. 2. 2. 2. 2. 2. 2. 2. 2. 2. 2. 2. 2. 2. 2. 2.
 2. 2. 2. 2. 2. 2. 2. 2. 2. 2. 2. 2. 2. 2. 2. 2. 2. 2. 2. 2. 2. 2. 2. 2.
 2. 2. 2. 2. 2. 2. 2. 2. 2. 2. 2. 2. 2. 2. 2. 2. 2. 2. 2. 2. 2. 2. 2.]
cycle= 1 E= -2257.02227250824  delta_E= -9.09e-13  |g|= 1.84e-06  |ddm|= 4.64e-06
HOMO: -0.26195279019353446 LUMO: 0.16543096881254934
-0.011952790193534457
[2. 2. 2. 2. 2. 2. 2. 2. 2. 2. 2. 2. 2. 2. 2. 2. 2. 2. 2. 2. 2. 2. 2. 2.
 2. 2. 2. 2. 2. 2. 2. 2. 2. 2. 2. 2. 2. 2. 2. 2. 2. 2. 2. 2. 2. 2. 2. 2.
 2. 2. 2. 2. 2. 2. 2. 2. 2. 2. 2. 2. 2. 2. 2. 2. 2. 2. 2. 2. 2. 2. 2.]
Extra cycle  E= -2257.02227250824  delta_E= -4.55e-13  |g|= 1.04e-06  |ddm|= 2.4e-06
converged SCF energy = -2257.02227250824
total scf energy = -916.014988702402 
-2257.02227250824, -500.644343192081, 1841.65162699792


******** <class 'pydmfet.qcwrap.pyscf_rks.rhf_pyscf'> flags ********
method = rhf_pyscf
initial guess = minao
damping factor = 0
level shift factor = 0.0
DIIS = <class 'pyscf.scf.diis.CDIIS'>
DIIS start cycle = 1
DIIS space = 8
SCF tol = 1e-09
SCF gradient tol = None
max. SCF cycles = 50
direct_scf = True
direct_scf_tol = 1e-13
chkfile to save SCF result = /tmp/tmpkfE068
max_memory 24000 MB (current use 1745 MB)
Set gradient conv threshold to 3.16228e-05
init E= -418.016991833454
HOMO: -1.3767684976114387 LUMO: -1.1224645206808124
-1.2496165161346242
[2. 2. 2. 2. 2. 2. 2. 2. 2. 2. 2. 2. 2. 2. 2. 2. 2. 2. 2. 2. 2.]
cycle= 1 E= -421.266225042129  delta_E= -3.25  |g|= 1.29  |ddm|= 5.02
HOMO: -0.02390987445940048 LUMO: 0.31441396475298894
0.1323401255405995
[2. 2. 2. 2. 2. 2. 2. 2. 2. 2. 2. 2. 2. 2. 2. 2. 2. 2. 2. 2. 2.]
cycle= 2 E= -421.753954442116  delta_E= -0.488  |g|= 0.548  |ddm|= 1.75
HOMO: -0.23053417401737344 LUMO: 0.25706912335860055
0.01946582598262657
[2. 2. 2. 2. 2. 2. 2. 2. 2. 2. 2. 2. 2. 2. 2. 2. 2. 2. 2. 2. 2.]
cycle= 3 E= -421.825375571357  delta_E= -0.0714  |g|= 0.0692  |ddm|= 0.436
HOMO: -0.2363847813463821 LUMO: 0.25078772535620375
0.013615218653617908
[2. 2. 2. 2. 2. 2. 2. 2. 2. 2. 2. 2. 2. 2. 2. 2. 2. 2. 2. 2. 2.]
cycle= 4 E= -421.827495811188  delta_E= -0.00212  |g|= 0.0105  |ddm|= 0.0866
HOMO: -0.2387117319869515 LUMO: 0.2491831265864066
0.011288268013048497
[2. 2. 2. 2. 2. 2. 2. 2. 2. 2. 2. 2. 2. 2. 2. 2. 2. 2. 2. 2. 2.]
cycle= 5 E= -421.827549995767  delta_E= -5.42e-05  |g|= 0.00151  |ddm|= 0.015
HOMO: -0.23842611636357258 LUMO: 0.24940694019613124
0.011573883636427418
[2. 2. 2. 2. 2. 2. 2. 2. 2. 2. 2. 2. 2. 2. 2. 2. 2. 2. 2. 2. 2.]
cycle= 6 E= -421.827551056558  delta_E= -1.06e-06  |g|= 0.000228  |ddm|= 0.00203
HOMO: -0.23840650261744895 LUMO: 0.24943354273663926
0.011593497382551082
[2. 2. 2. 2. 2. 2. 2. 2. 2. 2. 2. 2. 2. 2. 2. 2. 2. 2. 2. 2. 2.]
cycle= 7 E= -421.827551085033  delta_E= -2.85e-08  |g|= 2.89e-05  |ddm|= 0.000356
HOMO: -0.23840469745899284 LUMO: 0.24943388296948762
0.011595302541007158
[2. 2. 2. 2. 2. 2. 2. 2. 2. 2. 2. 2. 2. 2. 2. 2. 2. 2. 2. 2. 2.]
cycle= 8 E= -421.827551085455  delta_E= -4.22e-10  |g|= 2.36e-06  |ddm|= 4.45e-05
HOMO: -0.23840487191445137 LUMO: 0.24943383201913344
0.011595128085548634
[2. 2. 2. 2. 2. 2. 2. 2. 2. 2. 2. 2. 2. 2. 2. 2. 2. 2. 2. 2. 2.]
Extra cycle  E= -421.827551085458  delta_E= -3.13e-12  |g|= 5.91e-07  |ddm|= 2.44e-06
converged SCF energy = -421.827551085458


******** <class 'pydmfet.qcwrap.pyscf_rks.rhf_pyscf'> flags ********
method = rhf_pyscf
initial guess = minao
damping factor = 0
level shift factor = 0.0
DIIS = <class 'pyscf.scf.diis.CDIIS'>
DIIS start cycle = 1
DIIS space = 8
SCF tol = 1e-09
SCF gradient tol = None
max. SCF cycles = 50
direct_scf = True
direct_scf_tol = 1e-13
chkfile to save SCF result = /tmp/tmpCfkyVf
max_memory 24000 MB (current use 2158 MB)
Set gradient conv threshold to 3.16228e-05
init E= -1168.66470786237
HOMO: -0.1250022403388882 LUMO: 0.09518233129937718
-0.014946775606392161
[2. 2. 2. 2. 2. 2. 2. 2. 2. 2. 2. 2. 2. 2. 2. 2. 2. 2. 2. 2. 2. 2. 2. 2.
 2. 2. 2. 2. 2. 2. 2. 2. 2. 2. 2. 2. 2. 2. 2. 2. 2. 2. 2. 2. 2. 2. 2. 2.
 2. 2.]
cycle= 1 E= -1161.72509832102  delta_E= 6.94  |g|= 1.07  |ddm|= 8.04
HOMO: -0.27939725091076256 LUMO: -0.013335085266065527
-0.14634061028576256
[2. 2. 2. 2. 2. 2. 2. 2. 2. 2. 2. 2. 2. 2. 2. 2. 2. 2. 2. 2. 2. 2. 2. 2.
 2. 2. 2. 2. 2. 2. 2. 2. 2. 2. 2. 2. 2. 2. 2. 2. 2. 2. 2. 2. 2. 2. 2. 2.
 2. 2.]
cycle= 2 E= -1162.10892091132  delta_E= -0.384  |g|= 0.178  |ddm|= 1.37
HOMO: -0.22774156357851263 LUMO: 0.07020661537759673
-0.07930406357851263
[2. 2. 2. 2. 2. 2. 2. 2. 2. 2. 2. 2. 2. 2. 2. 2. 2. 2. 2. 2. 2. 2. 2. 2.
 2. 2. 2. 2. 2. 2. 2. 2. 2. 2. 2. 2. 2. 2. 2. 2. 2. 2. 2. 2. 2. 2. 2. 2.
 2. 2.]
cycle= 3 E= -1162.12157183946  delta_E= -0.0127  |g|= 0.0275  |ddm|= 0.201
HOMO: -0.2297004756126626 LUMO: 0.06858829420789814
-0.0812629756126626
[2. 2. 2. 2. 2. 2. 2. 2. 2. 2. 2. 2. 2. 2. 2. 2. 2. 2. 2. 2. 2. 2. 2. 2.
 2. 2. 2. 2. 2. 2. 2. 2. 2. 2. 2. 2. 2. 2. 2. 2. 2. 2. 2. 2. 2. 2. 2. 2.
 2. 2.]
cycle= 4 E= -1162.12225533629  delta_E= -0.000683  |g|= 0.00503  |ddm|= 0.0613
HOMO: -0.22984272287489302 LUMO: 0.06799153202411609
-0.08140522287489302
[2. 2. 2. 2. 2. 2. 2. 2. 2. 2. 2. 2. 2. 2. 2. 2. 2. 2. 2. 2. 2. 2. 2. 2.
 2. 2. 2. 2. 2. 2. 2. 2. 2. 2. 2. 2. 2. 2. 2. 2. 2. 2. 2. 2. 2. 2. 2. 2.
 2. 2.]
cycle= 5 E= -1162.12227884965  delta_E= -2.35e-05  |g|= 0.000403  |ddm|= 0.0126
HOMO: -0.22979716656318244 LUMO: 0.06814961048353392
-0.08135966656318243
[2. 2. 2. 2. 2. 2. 2. 2. 2. 2. 2. 2. 2. 2. 2. 2. 2. 2. 2. 2. 2. 2. 2. 2.
 2. 2. 2. 2. 2. 2. 2. 2. 2. 2. 2. 2. 2. 2. 2. 2. 2. 2. 2. 2. 2. 2. 2. 2.
 2. 2.]
cycle= 6 E= -1162.12227912247  delta_E= -2.73e-07  |g|= 0.000103  |ddm|= 0.00144
HOMO: -0.22979542421584778 LUMO: 0.06814072581230424
-0.08135792421584778
[2. 2. 2. 2. 2. 2. 2. 2. 2. 2. 2. 2. 2. 2. 2. 2. 2. 2. 2. 2. 2. 2. 2. 2.
 2. 2. 2. 2. 2. 2. 2. 2. 2. 2. 2. 2. 2. 2. 2. 2. 2. 2. 2. 2. 2. 2. 2. 2.
 2. 2.]
cycle= 7 E= -1162.12227912819  delta_E= -5.72e-09  |g|= 7.11e-06  |ddm|= 0.000161
HOMO: -0.2297936228942402 LUMO: 0.06814571569303417
-0.08135612289424021
[2. 2. 2. 2. 2. 2. 2. 2. 2. 2. 2. 2. 2. 2. 2. 2. 2. 2. 2. 2. 2. 2. 2. 2.
 2. 2. 2. 2. 2. 2. 2. 2. 2. 2. 2. 2. 2. 2. 2. 2. 2. 2. 2. 2. 2. 2. 2. 2.
 2. 2.]
cycle= 8 E= -1162.12227912827  delta_E= -8.73e-11  |g|= 5.54e-07  |ddm|= 2.77e-05
HOMO: -0.22979363749295095 LUMO: 0.06814563373580329
-0.08135613749295097
[2. 2. 2. 2. 2. 2. 2. 2. 2. 2. 2. 2. 2. 2. 2. 2. 2. 2. 2. 2. 2. 2. 2. 2.
 2. 2. 2. 2. 2. 2. 2. 2. 2. 2. 2. 2. 2. 2. 2. 2. 2. 2. 2. 2. 2. 2. 2. 2.
 2. 2.]
Extra cycle  E= -1162.12227912827  delta_E= 4.55e-13  |g|= 1.31e-07  |ddm|= 7.06e-07
converged SCF energy = -1162.12227912827
initialize density partition
Ne_imp =  41.99999999999999
Ne_bath =  99.99999999999989
|P_imp + P_bath - P_ref| =  4.932919804519436
max(P_imp + P_bath - P_ref) 0.7994926242716719
 OEP iteration  1
|umat| =  0.0
homo-lumo gap =  0.4878387078297979
ne-Nocc =  0.0
0.011595086152382458
[1. 1. 1. 1. 1. 1. 1. 1. 1. 1. 1. 1. 1. 1. 1. 1. 1. 1. 1. 1. 1.]
-149.52582476867988
homo-lumo gap =  0.2979392682578391
ne-Nocc =  -4.973799150320701e-14
-0.08135614664633695
[1. 1. 1. 1. 1. 1. 1. 1. 1. 1. 1. 1. 1. 1. 1. 1. 1. 1. 1. 1. 1. 1. 1. 1.
 1. 1. 1. 1. 1. 1. 1. 1. 1. 1. 1. 1. 1. 1. 1. 1. 1. 1. 1. 1. 1. 1. 1. 1.
 1. 1.]
-329.13481363232665
2-norm (grad),       max(grad):
3.6353001080066205 ,  0.7994926622517654
W =  478.66063840100674
|umat| =  1.3569498299125669
homo-lumo gap =  0.24783838194610058
ne-Nocc =  0.0
-0.05713234724137026
[1. 1. 1. 1. 1. 1. 1. 1. 1. 1. 1. 1. 1. 1. 1. 1. 1. 1. 1. 1. 1.]
-147.81353324741576
homo-lumo gap =  0.11618126626564972
ne-Nocc =  0.0
-0.1236074694744188
[1. 1. 1. 1. 1. 1. 1. 1. 1. 1. 1. 1. 1. 1. 1. 1. 1. 1. 1. 1. 1. 1. 1. 1.
 1. 1. 1. 1. 1. 1. 1. 1. 1. 1. 1. 1. 1. 1. 1. 1. 1. 1. 1. 1. 1. 1. 1. 1.
 1. 1.]
-327.1353375726569
2-norm (grad),       max(grad):
2.011055154547883 ,  0.44260120130746344
W =  474.0641547303249
|umat| =  2.718440539137703
homo-lumo gap =  0.02015905764458853
ne-Nocc =  -2.842170943040401e-14
-0.18054077449986078
[1.    1.    1.    1.    1.    1.    1.    1.    1.    1.    1.    1.
 1.    1.    1.    1.    1.    1.    1.    0.882 0.882 0.118 0.118]
-148.09403103937603
homo-lumo gap =  0.1340263520844513
ne-Nocc =  -2.842170943040401e-14
-0.22072560673544903
[1. 1. 1. 1. 1. 1. 1. 1. 1. 1. 1. 1. 1. 1. 1. 1. 1. 1. 1. 1. 1. 1. 1. 1.
 1. 1. 1. 1. 1. 1. 1. 1. 1. 1. 1. 1. 1. 1. 1. 1. 1. 1. 1. 1. 1. 1. 1. 1.
 1. 1.]
-327.3280533533147
2-norm (grad),       max(grad):
4.543819975069627 ,  1.7832949446180453
W =  473.1437960469794
|umat| =  2.7551833071396237
homo-lumo gap =  0.05968079405826704
ne-Nocc =  3.552713678800501e-15
-0.18140823912563397
[1.    1.    1.    1.    1.    1.    1.    1.    1.    1.    1.    1.
 1.    1.    1.    1.    1.    1.    1.    0.997 0.997 0.003 0.003]
-148.22409516621983
homo-lumo gap =  0.007335318128511681
ne-Nocc =  0.0
-0.24381463565788733
[1.    1.    1.    1.    1.    1.    1.    1.    1.    1.    1.    1.
 1.    1.    1.    1.    1.    1.    1.    1.    1.    1.    1.    1.
 1.    1.    1.    1.    1.    1.    1.    1.    1.    1.    1.    1.
 1.    1.    1.    1.    1.    1.    1.    1.    1.    1.    1.    1.
 0.676 0.676 0.324 0.324]
-326.9462919443493
2-norm (grad),       max(grad):
3.619167732632535 ,  1.5957982847602006
W =  471.9986133001382
|umat| =  2.457590561630323
homo-lumo gap =  0.18790276407501907
ne-Nocc =  0.0
-0.14936536760612418
[1. 1. 1. 1. 1. 1. 1. 1. 1. 1. 1. 1. 1. 1. 1. 1. 1. 1. 1. 1. 1.]
-148.2561090347121
homo-lumo gap =  0.014081626166859457
ne-Nocc =  0.0
-0.25698127567562234
[1.    1.    1.    1.    1.    1.    1.    1.    1.    1.    1.    1.
 1.    1.    1.    1.    1.    1.    1.    1.    1.    1.    1.    1.
 1.    1.    1.    1.    1.    1.    1.    1.    1.    1.    1.    1.
 1.    1.    1.    1.    1.    1.    1.    1.    1.    1.    1.    1.
 0.804 0.804 0.197 0.197]
-327.0314116473255
2-norm (grad),       max(grad):
1.2538295614608836 ,  0.37888227460084684
W =  471.69520025500447
|umat| =  2.881191286648291
homo-lumo gap =  0.13774835896295973
ne-Nocc =  -7.105427357601002e-14
-0.2018131809995436
[1. 1. 1. 1. 1. 1. 1. 1. 1. 1. 1. 1. 1. 1. 1. 1. 1. 1. 1. 1. 1.]
-148.43095940918076
homo-lumo gap =  0.0006237488472438657
ne-Nocc =  0.0
-0.2986664620304855
[1.    1.    1.    1.    1.    1.    1.    1.    1.    1.    1.    1.
 1.    1.    1.    1.    1.    1.    1.    1.    1.    1.    1.    1.
 1.    1.    1.    1.    1.    1.    1.    1.    1.    1.    1.    1.
 1.    1.    1.    1.    1.    1.    1.    1.    1.    1.    1.    0.894
 0.894 0.417 0.387 0.387 0.01  0.01 ]
-327.13796603773926
2-norm (grad),       max(grad):
3.0145262241806408 ,  1.4274962117322145
W =  471.2733080044013
|umat| =  3.759107390493123
homo-lumo gap =  0.012082685965131512
ne-Nocc =  -1.4210854715202004e-14
-0.3077290567813433
[1.    1.    1.    1.    1.    1.    1.    1.    1.    1.    1.    1.
 1.    1.    1.    1.    0.998 0.998 0.964 0.964 0.713 0.181 0.181]
-148.94932764800623
homo-lumo gap =  6.181964622986591e-07
ne-Nocc =  0.0
-0.4016991822062028
[1.    1.    1.    1.    1.    1.    1.    1.    1.    1.    1.    1.
 1.    1.    1.    1.    1.    1.    1.    1.    1.    1.    1.    1.
 1.    1.    1.    1.    1.    1.    1.    1.    1.    1.    1.    1.
 1.    1.    1.    1.    1.    1.    1.    1.    1.    1.    0.939 0.939
 0.695 0.62  0.62  0.131 0.056]
-327.8556551316634
2-norm (grad),       max(grad):
4.761585772094307 ,  1.8456103625342595
W =  471.11751443969746
|umat| =  3.216265912122601
homo-lumo gap =  0.07649568018968955
ne-Nocc =  0.0
-0.2546266756762954
[1. 1. 1. 1. 1. 1. 1. 1. 1. 1. 1. 1. 1. 1. 1. 1. 1. 1. 1. 1. 1.]
-148.4954371326704
homo-lumo gap =  3.269514703418963e-08
ne-Nocc =  0.0
-0.33187229700155296
[1.    1.    1.    1.    1.    1.    1.    1.    1.    1.    1.    1.
 1.    1.    1.    1.    1.    1.    1.    1.    1.    1.    1.    1.
 1.    1.    1.    1.    1.    1.    1.    1.    1.    1.    1.    1.
 1.    1.    1.    1.    1.    1.    1.    1.    1.    1.    1.    0.927
 0.927 0.452 0.452 0.087 0.086 0.033 0.033 0.003]
-327.3039007811921
2-norm (grad),       max(grad):
2.25960292745365 ,  1.6820230208838716
W =  470.959193658247
|umat| =  3.5929980849977845
homo-lumo gap =  0.0011347803857021388
ne-Nocc =  -1.0658141036401503e-14
-0.29767870557543796
[1.    1.    1.    1.    1.    1.    1.    1.    1.    1.    1.    1.
 1.    1.    0.993 0.993 0.985 0.985 0.943 0.943 0.422 0.368 0.368]
-148.6236517886652
homo-lumo gap =  4.5966156254184654e-05
ne-Nocc =  3.552713678800501e-14
-0.382031349270847
[1.    1.    1.    1.    1.    1.    1.    1.    1.    1.    1.    1.
 1.    1.    1.    1.    1.    1.    1.    1.    1.    1.    1.    1.
 1.    1.    1.    1.    1.    1.    1.    1.    1.    1.    1.    1.
 1.    1.    1.    1.    1.    1.    1.    1.    1.    1.    0.885 0.881
 0.626 0.626 0.624 0.145 0.145 0.068]
-327.61467311933654
2-norm (grad),       max(grad):
2.608482570672683 ,  1.2214609489934292
W =  470.7948020195904
|umat| =  3.467561345760981
homo-lumo gap =  0.031397591706652794
ne-Nocc =  0.0
-0.2796341741738928
[1.    1.    1.    1.    1.    1.    1.    1.    1.    1.    1.    1.
 1.    1.    1.    1.    0.999 0.999 0.993 0.993 0.949 0.034 0.034]
-148.54229602472748
homo-lumo gap =  0.013845642727036866
ne-Nocc =  0.0
-0.37030906372863026
[1.    1.    1.    1.    1.    1.    1.    1.    1.    1.    1.    1.
 1.    1.    1.    1.    1.    1.    1.    1.    1.    1.    1.    1.
 1.    1.    1.    1.    1.    1.    1.    1.    1.    1.    1.    1.
 1.    1.    1.    1.    1.    1.    1.    1.    1.    1.    0.998 0.994
 0.757 0.757 0.163 0.163 0.142 0.022 0.002 0.002]
-327.59348955444386
2-norm (grad),       max(grad):
0.9802155279870576 ,  0.26404274662929716
W =  470.69704292414406
|umat| =  3.633031471169924
homo-lumo gap =  0.009899787859309228
ne-Nocc =  0.0
-0.29136823380956567
[1.    1.    1.    1.    1.    1.    1.    1.    1.    1.    1.    1.
 1.    1.    1.    1.    0.995 0.995 0.978 0.978 0.648 0.203 0.203]
-148.65181027931237
homo-lumo gap =  0.009360042169925198
ne-Nocc =  0.0
-0.39448362168071716
[1.    1.    1.    1.    1.    1.    1.    1.    1.    1.    1.    1.
 1.    1.    1.    1.    1.    1.    1.    1.    1.    1.    1.    1.
 1.    1.    1.    1.    1.    1.    1.    1.    1.    1.    1.    1.
 1.    1.    1.    1.    1.    1.    1.    1.    1.    1.    0.999 0.732
 0.732 0.723 0.287 0.287 0.153 0.085 0.001 0.001]
-327.79938535328705
2-norm (grad),       max(grad):
1.255959473295937 ,  0.5533141035976865
W =  470.58321150235616
|umat| =  4.144661522909894
homo-lumo gap =  0.0016636794542653766
ne-Nocc =  -3.552713678800501e-15
-0.3144949869487033
[1.    1.    1.    1.    1.    1.    1.    1.    1.    1.    1.    1.
 1.    1.    1.    1.    0.999 0.999 0.986 0.504 0.504 0.422 0.422 0.164]
-149.14117096583732
homo-lumo gap =  0.016630677788491754
ne-Nocc =  0.0
-0.4628737822715427
[1.    1.    1.    1.    1.    1.    1.    1.    1.    1.    1.    1.
 1.    1.    1.    1.    1.    1.    1.    1.    1.    1.    1.    1.
 1.    1.    1.    1.    1.    1.    1.    1.    1.    1.    1.    1.
 1.    1.    1.    1.    1.    1.    1.    1.    1.    0.999 0.999 0.956
 0.956 0.841 0.159 0.086 0.002 0.002]
-328.70569241499237
2-norm (grad),       max(grad):
3.8690568017360927 ,  1.827191722622649
W =  470.5131626580053
|umat| =  4.190408551216472
homo-lumo gap =  1.7577866384677066e-08
ne-Nocc =  0.0
-0.3225478602224839
[1.    1.    1.    1.    1.    1.    1.    1.    1.    1.    1.    1.
 1.    1.    1.    0.997 0.955 0.955 0.659 0.659 0.46  0.46  0.456 0.4  ]
-149.12957207278328
homo-lumo gap =  0.03060440121788882
ne-Nocc =  7.105427357601002e-14
-0.4681040112251035
[1.    1.    1.    1.    1.    1.    1.    1.    1.    1.    1.    1.
 1.    1.    1.    1.    1.    1.    1.    1.    1.    1.    1.    1.
 1.    1.    1.    1.    1.    1.    1.    1.    1.    1.    1.    1.
 1.    1.    1.    1.    1.    1.    1.    1.    1.    0.997 0.997 0.99
 0.99  0.952 0.042 0.028 0.001 0.001 0.001 0.001]
-328.806909157403
2-norm (grad),       max(grad):
3.0280260977131075 ,  1.0796845585417267
W =  470.37001354176044
|umat| =  4.109470354708491
homo-lumo gap =  0.03582053452958883
ne-Nocc =  -2.1316282072803006e-14
-0.3078377973764496
[1.    1.    1.    1.    1.    1.    1.    1.    1.    1.    1.    1.
 1.    1.    1.    1.    1.    1.    0.999 0.999 0.962 0.019 0.019 0.001]
-149.22947233720546
homo-lumo gap =  0.03232561744773821
ne-Nocc =  -2.1316282072803006e-14
-0.4624219070382292
[1.    1.    1.    1.    1.    1.    1.    1.    1.    1.    1.    1.
 1.    1.    1.    1.    1.    1.    1.    1.    1.    1.    1.    1.
 1.    1.    1.    1.    1.    1.    1.    1.    1.    1.    1.    1.
 1.    1.    1.    1.    1.    1.    1.    1.    1.    0.999 0.999 0.999
 0.957 0.957 0.034 0.034 0.008 0.008 0.003 0.002]
-328.55042398820774
2-norm (grad),       max(grad):
0.6482391098667022 ,  0.17063715495688503
W =  470.27051850321686
|umat| =  4.347781580498426
homo-lumo gap =  0.009110131384539033
ne-Nocc =  0.0
-0.3345587763626306
[1.    1.    1.    1.    1.    1.    1.    1.    1.    1.    1.    1.
 1.    1.    1.    0.995 0.995 0.99  0.99  0.894 0.765 0.345 0.013 0.013]
-149.46374196144154
homo-lumo gap =  0.02174575668011769
ne-Nocc =  -7.105427357601002e-15
-0.4866368210799904
[1.    1.    1.    1.    1.    1.    1.    1.    1.    1.    1.    1.
 1.    1.    1.    1.    1.    1.    1.    1.    1.    1.    1.    1.
 1.    1.    1.    1.    1.    1.    1.    1.    1.    1.    1.    1.
 1.    1.    1.    1.    1.    1.    1.    1.    1.    0.993 0.967 0.967
 0.892 0.892 0.097 0.097 0.036 0.036 0.019 0.006]
-328.84589342950943
2-norm (grad),       max(grad):
1.0454334855146334 ,  0.4651603503035695
W =  470.1977475927291
|umat| =  4.534633592925951
homo-lumo gap =  0.0032838372361525536
ne-Nocc =  3.552713678800501e-15
-0.3472441197012951
[1.    1.    1.    1.    1.    1.    1.    1.    1.    1.    1.    1.
 1.    1.    1.    0.998 0.998 0.949 0.913 0.599 0.599 0.436 0.436 0.072]
-149.65908054316498
homo-lumo gap =  0.015210095206761698
ne-Nocc =  0.0
-0.5050727099750921
[1.    1.    1.    1.    1.    1.    1.    1.    1.    1.    1.    1.
 1.    1.    1.    1.    1.    1.    1.    1.    1.    1.    1.    1.
 1.    1.    1.    1.    1.    1.    1.    1.    1.    1.    1.    1.
 1.    1.    1.    1.    1.    1.    1.    1.    0.999 0.986 0.986 0.841
 0.841 0.808 0.167 0.167 0.058 0.055 0.055 0.035]
-329.07519138285767
2-norm (grad),       max(grad):
1.5298326208560937 ,  0.4656355434682937
W =  470.12106578024304
|umat| =  4.719157980009704
homo-lumo gap =  0.0038339377829012533
ne-Nocc =  2.1316282072803006e-14
-0.35935784917833546
[1.    1.    1.    1.    1.    1.    1.    1.    1.    1.    1.    1.
 1.    1.    1.    0.999 0.999 0.991 0.974 0.604 0.604 0.415 0.415]
-149.95612294876705
homo-lumo gap =  0.00603959228185913
ne-Nocc =  -2.842170943040401e-14
-0.5245817022013787
[1.    1.    1.    1.    1.    1.    1.    1.    1.    1.    1.    1.
 1.    1.    1.    1.    1.    1.    1.    1.    1.    1.    1.    1.
 1.    1.    1.    1.    1.    1.    1.    1.    1.    1.    1.    1.
 1.    1.    1.    1.    1.    1.    0.997 0.997 0.989 0.989 0.966 0.962
 0.962 0.407 0.17  0.17  0.146 0.146 0.072 0.027]
-329.3603547609667
2-norm (grad),       max(grad):
2.1757462308421576 ,  1.1839517661056065
W =  470.060196636123
|umat| =  5.281361292699892
homo-lumo gap =  0.02489145954406441
ne-Nocc =  3.552713678800501e-15
-0.39537474505803094
[1.    1.    1.    1.    1.    1.    1.    1.    1.    1.    1.    1.
 1.    1.    1.    1.    1.    1.    0.941 0.941 0.936 0.091 0.091]
-150.97988021457653
homo-lumo gap =  0.013244271909009009
ne-Nocc =  -1.4210854715202004e-14
-0.5481235656683664
[1.    1.    1.    1.    1.    1.    1.    1.    1.    1.    1.    1.
 1.    1.    1.    1.    1.    1.    1.    1.    1.    1.    1.    1.
 1.    1.    1.    1.    1.    1.    1.    1.    1.    1.    1.    1.
 1.    1.    1.    1.    1.    1.    1.    1.    1.    1.    1.    1.
 0.987 0.684 0.133 0.133 0.066]
-330.9354509130463
2-norm (grad),       max(grad):
4.343680652878717 ,  1.8456575136892337
W =  470.5215915710907
|umat| =  4.793301460788482
homo-lumo gap =  0.0005492330580064153
ne-Nocc =  3.552713678800501e-15
-0.36416366376309545
[1.    1.    1.    1.    1.    1.    1.    1.    1.    1.    1.    1.
 1.    1.    1.    0.999 0.999 0.997 0.99  0.518 0.518 0.49  0.49 ]
-150.08224449911415
homo-lumo gap =  0.008451204541006008
ne-Nocc =  -7.105427357601002e-15
-0.5319224579701409
[1.    1.    1.    1.    1.    1.    1.    1.    1.    1.    1.    1.
 1.    1.    1.    1.    1.    1.    1.    1.    1.    1.    1.    1.
 1.    1.    1.    1.    1.    1.    1.    1.    1.    1.    1.    1.
 1.    1.    1.    1.    1.    0.999 0.999 0.999 0.99  0.99  0.84  0.84
 0.719 0.712 0.313 0.313 0.102 0.102 0.069 0.015]
-329.4876117289939
2-norm (grad),       max(grad):
1.4747918758846639 ,  0.5609058648880845
W =  470.02659274710146
|umat| =  4.81611758931953
homo-lumo gap =  0.016697943001719118
ne-Nocc =  0.0
-0.3631328014438226
[1.    1.    1.    1.    1.    1.    1.    1.    1.    1.    1.    1.
 1.    1.    1.    0.999 0.999 0.999 0.998 0.843 0.843 0.16  0.16 ]
-150.14796305668116
homo-lumo gap =  0.0051743865413320655
ne-Nocc =  0.0
-0.5315658124837304
[1.    1.    1.    1.    1.    1.    1.    1.    1.    1.    1.    1.
 1.    1.    1.    1.    1.    1.    1.    1.    1.    1.    1.    1.
 1.    1.    1.    1.    1.    1.    1.    1.    1.    1.    1.    1.
 1.    1.    1.    1.    1.    1.    1.    1.    1.    0.999 0.967 0.943
 0.605 0.605 0.352 0.352 0.066 0.049 0.049 0.012]
-329.65783191443086
2-norm (grad),       max(grad):
1.0745801313293815 ,  0.42526649997918975
W =  469.9795410878313
|umat| =  4.761064475290723
homo-lumo gap =  0.024214130159079694
ne-Nocc =  3.552713678800501e-15
-0.35819197359163407
[1.    1.    1.    1.    1.    1.    1.    1.    1.    1.    1.    1.
 1.    1.    1.    1.    0.999 0.999 0.999 0.92  0.92  0.083 0.083]
-150.080864063615
homo-lumo gap =  0.02242114106956483
ne-Nocc =  0.0
-0.5260586957377142
[1.    1.    1.    1.    1.    1.    1.    1.    1.    1.    1.    1.
 1.    1.    1.    1.    1.    1.    1.    1.    1.    1.    1.    1.
 1.    1.    1.    1.    1.    1.    1.    1.    1.    1.    1.    1.
 1.    1.    1.    1.    1.    1.    1.    1.    1.    1.    0.997 0.989
 0.893 0.893 0.086 0.086 0.028 0.01  0.01  0.007]
-329.73797218482474
2-norm (grad),       max(grad):
0.4845933834615645 ,  0.13211650853418155
W =  469.95586999029035
|umat| =  4.860845226335189
homo-lumo gap =  0.016334610996653787
ne-Nocc =  0.0
-0.3666955856363013
[1.    1.    1.    1.    1.    1.    1.    1.    1.    1.    1.    1.
 1.    1.    1.    0.999 0.998 0.997 0.997 0.839 0.839 0.166 0.166]
-150.20308365131024
homo-lumo gap =  0.026395937419114057
ne-Nocc =  -7.105427357601002e-15
-0.5347365127005713
[1.    1.    1.    1.    1.    1.    1.    1.    1.    1.    1.    1.
 1.    1.    1.    1.    1.    1.    1.    1.    1.    1.    1.    1.
 1.    1.    1.    1.    1.    1.    1.    1.    1.    1.    1.    1.
 1.    1.    1.    1.    1.    1.    1.    1.    1.    0.999 0.998 0.994
 0.923 0.923 0.057 0.057 0.017 0.013 0.009 0.009]
-329.97330902210234
2-norm (grad),       max(grad):
0.5250550641484053 ,  0.14720575705443495
W =  469.92287850149495
|umat| =  5.692112562119051
homo-lumo gap =  2.3666093779128872e-07
ne-Nocc =  7.105427357601002e-15
-0.4268977198425624
[1.    1.    1.    1.    1.    1.    1.    1.    1.    1.    1.    1.
 1.    1.    1.    0.997 0.997 0.987 0.761 0.761 0.715 0.715 0.068]
-151.50617191110305
homo-lumo gap =  0.014645408395898118
ne-Nocc =  -1.4210854715202004e-14
-0.586884416374104
[1.    1.    1.    1.    1.    1.    1.    1.    1.    1.    1.    1.
 1.    1.    1.    1.    1.    1.    1.    1.    1.    1.    1.    1.
 1.    1.    1.    1.    1.    1.    1.    1.    1.    1.    1.    1.
 1.    1.    1.    1.    1.    1.    1.    1.    1.    0.999 0.999 0.894
 0.824 0.824 0.2   0.2   0.039 0.01  0.01  0.004]
-331.9393037761
2-norm (grad),       max(grad):
4.110274894532149 ,  1.7152753563967023
W =  470.1236477101306
|umat| =  4.949104819670727
homo-lumo gap =  0.01224574011595786
ne-Nocc =  1.0658141036401503e-14
-0.37469445165760323
[1.    1.    1.    1.    1.    1.    1.    1.    1.    1.    1.    1.
 1.    1.    1.    0.997 0.997 0.993 0.993 0.778 0.778 0.232 0.232]
-150.32328004551584
homo-lumo gap =  0.02801097078193049
ne-Nocc =  -7.105427357601002e-15
-0.5423887278500747
[1.    1.    1.    1.    1.    1.    1.    1.    1.    1.    1.    1.
 1.    1.    1.    1.    1.    1.    1.    1.    1.    1.    1.    1.
 1.    1.    1.    1.    1.    1.    1.    1.    1.    1.    1.    1.
 1.    1.    1.    1.    1.    1.    1.    1.    1.    0.999 0.996 0.995
 0.933 0.933 0.049 0.049 0.02  0.011 0.009 0.009]
-330.1744023855984
2-norm (grad),       max(grad):
0.6837462941184131 ,  0.2152674597269546
W =  469.90003770452176
|umat| =  5.893409198207647
homo-lumo gap =  2.741854100429819e-07
ne-Nocc =  1.4210854715202004e-14
-0.44034793207678125
[1.    1.    1.    1.    1.    1.    1.    1.    1.    1.    1.    1.
 1.    1.    1.    0.998 0.998 0.993 0.991 0.991 0.509 0.509 0.012]
-151.91489423664916
homo-lumo gap =  0.000440180983547922
ne-Nocc =  1.4210854715202004e-14
-0.5969992083440008
[1.    1.    1.    1.    1.    1.    1.    1.    1.    1.    1.    1.
 1.    1.    1.    1.    1.    1.    1.    1.    1.    1.    1.    1.
 1.    1.    1.    1.    1.    1.    1.    1.    1.    1.    1.    1.
 1.    1.    1.    1.    1.    1.    1.    1.    1.    0.993 0.993 0.961
 0.515 0.515 0.493 0.493 0.014 0.014 0.008 0.002]
-332.4637664769135
2-norm (grad),       max(grad):
4.652738010415124 ,  1.8184180348208467
W =  470.250265221372
|umat| =  5.019719680343783
homo-lumo gap =  0.010859594487795166
ne-Nocc =  2.4868995751603507e-14
-0.3813836885396383
[1.    1.    1.    1.    1.    1.    1.    1.    1.    1.    1.    1.
 1.    1.    1.    0.995 0.991 0.987 0.987 0.758 0.758 0.263 0.263]
-150.42634161691143
homo-lumo gap =  0.02865906568698595
ne-Nocc =  0.0
-0.5483106927365462
[1.    1.    1.    1.    1.    1.    1.    1.    1.    1.    1.    1.
 1.    1.    1.    1.    1.    1.    1.    1.    1.    1.    1.    1.
 1.    1.    1.    1.    1.    1.    1.    1.    1.    1.    1.    1.
 1.    1.    1.    1.    1.    1.    1.    0.999 0.999 0.999 0.996 0.986
 0.938 0.938 0.047 0.047 0.026 0.008 0.008 0.007]
-330.336836761308
2-norm (grad),       max(grad):
0.7652510994376217 ,  0.2477138826734251
W =  469.8839020930159
|umat| =  5.705301349054774
homo-lumo gap =  1.4716812113402256e-07
ne-Nocc =  0.0
-0.435594456310194
[1.    1.    1.    1.    1.    1.    1.    1.    1.    1.    1.    1.
 1.    1.    1.    0.981 0.981 0.98  0.923 0.922 0.557 0.557 0.098]
-151.56110548164574
homo-lumo gap =  3.938968081451666e-05
ne-Nocc =  1.4210854715202004e-14
-0.5865869476548691
[1.    1.    1.    1.    1.    1.    1.    1.    1.    1.    1.    1.
 1.    1.    1.    1.    1.    1.    1.    1.    1.    1.    1.    1.
 1.    1.    1.    1.    1.    1.    1.    1.    1.    1.    1.    1.
 1.    1.    1.    1.    1.    1.    1.    0.999 0.999 0.997 0.997 0.707
 0.707 0.444 0.442 0.219 0.219 0.135 0.135 0.001]
-331.962240571636
2-norm (grad),       max(grad):
3.327151688420904 ,  1.6597523598779493
W =  469.95903207525765
|umat| =  5.12129885683814
homo-lumo gap =  0.010270136944913189
ne-Nocc =  3.552713678800501e-15
-0.39126267352825
[1.    1.    1.    1.    1.    1.    1.    1.    1.    1.    1.    1.
 1.    1.    1.    0.991 0.969 0.969 0.962 0.763 0.763 0.292 0.292]
-150.58063285219853
homo-lumo gap =  0.02951211175009194
ne-Nocc =  0.0
-0.5558119612001093
[1.    1.    1.    1.    1.    1.    1.    1.    1.    1.    1.    1.
 1.    1.    1.    1.    1.    1.    1.    1.    1.    1.    1.    1.
 1.    1.    1.    1.    1.    1.    1.    1.    1.    1.    1.    1.
 1.    1.    1.    1.    1.    1.    1.    0.999 0.998 0.997 0.997 0.963
 0.947 0.947 0.047 0.047 0.033 0.01  0.01  0.004]
-330.58076841216496
2-norm (grad),       max(grad):
0.8121600084296067 ,  0.28418005393035206
W =  469.8604447728857
|umat| =  6.013726909482486
homo-lumo gap =  0.013637145355580582
ne-Nocc =  -3.552713678800501e-15
-0.46112312140674216
[1.    1.    1.    1.    1.    1.    1.    1.    1.    1.    1.    1.
 1.    1.    0.998 0.995 0.993 0.991 0.948 0.864 0.864 0.294 0.054]
-152.10791738626725
homo-lumo gap =  0.016746360438950503
ne-Nocc =  1.4210854715202004e-14
-0.6031581303344069
[1.    1.    1.    1.    1.    1.    1.    1.    1.    1.    1.    1.
 1.    1.    1.    1.    1.    1.    1.    1.    1.    1.    1.    1.
 1.    1.    1.    1.    1.    1.    1.    1.    1.    1.    1.    1.
 1.    1.    1.    1.    1.    1.    1.    0.997 0.992 0.992 0.976 0.976
 0.957 0.862 0.18  0.03  0.03  0.007 0.002]
-332.88937118920927
2-norm (grad),       max(grad):
3.3200374361575635 ,  1.1952912603504657
W =  470.07750741450866
|umat| =  5.239710828876524
homo-lumo gap =  0.010750644827180744
ne-Nocc =  0.0
-0.4009621074464319
[1.    1.    1.    1.    1.    1.    1.    1.    1.    1.    1.    1.
 1.    1.    1.    0.989 0.968 0.968 0.968 0.788 0.772 0.282 0.264]
-150.78021351923732
homo-lumo gap =  0.029098242404269836
ne-Nocc =  0.0
-0.5628068708371622
[1.    1.    1.    1.    1.    1.    1.    1.    1.    1.    1.    1.
 1.    1.    1.    1.    1.    1.    1.    1.    1.    1.    1.    1.
 1.    1.    1.    1.    1.    1.    1.    1.    1.    1.    1.    1.
 1.    1.    1.    1.    1.    1.    1.    1.    0.999 0.993 0.993 0.973
 0.938 0.937 0.042 0.036 0.035 0.026 0.026 0.002]
-330.8752222264171
2-norm (grad),       max(grad):
0.9006510826647223 ,  0.25554712018137615
W =  469.83791045897215
|umat| =  5.807903752519038
homo-lumo gap =  0.013234641335879815
ne-Nocc =  0.0
-0.44479685848766953
[1.    1.    1.    1.    1.    1.    1.    1.    1.    1.    1.    1.
 1.    1.    1.    0.996 0.995 0.989 0.985 0.861 0.861 0.305 0.008]
-151.79028416566968
homo-lumo gap =  0.004423810718295451
ne-Nocc =  3.552713678800501e-14
-0.5958719482309388
[1.    1.    1.    1.    1.    1.    1.    1.    1.    1.    1.    1.
 1.    1.    1.    1.    1.    1.    1.    1.    1.    1.    1.    1.
 1.    1.    1.    1.    1.    1.    1.    1.    1.    1.    1.    1.
 1.    1.    1.    1.    1.    1.    1.    0.995 0.993 0.993 0.993 0.888
 0.627 0.627 0.409 0.409 0.059 0.007]
-332.3331795495866
2-norm (grad),       max(grad):
2.5864508961718045 ,  1.2092771927574697
W =  469.96249878819464
|umat| =  5.31235221810913
homo-lumo gap =  0.011105129019784665
ne-Nocc =  0.0
-0.4074249094954494
[1.    1.    1.    1.    1.    1.    1.    1.    1.    1.    1.    1.
 1.    1.    0.999 0.987 0.971 0.959 0.959 0.797 0.782 0.28  0.265]
-150.90046843427479
homo-lumo gap =  0.02806660241712433
ne-Nocc =  -7.105427357601002e-15
-0.567224169972146
[1.    1.    1.    1.    1.    1.    1.    1.    1.    1.    1.    1.
 1.    1.    1.    1.    1.    1.    1.    1.    1.    1.    1.    1.
 1.    1.    1.    1.    1.    1.    1.    1.    1.    1.    1.    1.
 1.    1.    1.    1.    1.    1.    1.    1.    0.999 0.987 0.987 0.978
 0.93  0.928 0.045 0.041 0.041 0.032 0.031 0.002]
-331.0572292625363
2-norm (grad),       max(grad):
0.8557108066558066 ,  0.23640371182493713
W =  469.82570282734895
|umat| =  5.587153663819985
homo-lumo gap =  0.016376628904887114
ne-Nocc =  0.0
-0.4314593269419617
[1.    1.    1.    1.    1.    1.    1.    1.    1.    1.    1.    1.
 1.    1.    0.994 0.992 0.978 0.918 0.918 0.885 0.881 0.218 0.216]
-151.37346420173864
homo-lumo gap =  0.011433103311031978
ne-Nocc =  0.0
-0.5833045622916152
[1.    1.    1.    1.    1.    1.    1.    1.    1.    1.    1.    1.
 1.    1.    1.    1.    1.    1.    1.    1.    1.    1.    1.    1.
 1.    1.    1.    1.    1.    1.    1.    1.    1.    1.    1.    1.
 1.    1.    1.    1.    1.    1.    1.    0.999 0.999 0.996 0.905 0.905
 0.792 0.787 0.273 0.273 0.035 0.018 0.018]
-331.7421361013627
2-norm (grad),       max(grad):
0.7791986944841365 ,  0.37584903915579415
W =  469.8129695647553
|umat| =  5.575471930241461
homo-lumo gap =  0.0015247091906108734
ne-Nocc =  6.394884621840902e-14
-0.42839506339226113
[1.    1.    1.    1.    1.    1.    1.    1.    1.    1.    1.    1.
 1.    1.    0.999 0.993 0.992 0.985 0.982 0.565 0.545 0.469 0.469]
-151.35704091920056
homo-lumo gap =  0.022376182727734784
ne-Nocc =  -7.105427357601002e-15
-0.5836492033875074
[1.    1.    1.    1.    1.    1.    1.    1.    1.    1.    1.    1.
 1.    1.    1.    1.    1.    1.    1.    1.    1.    1.    1.    1.
 1.    1.    1.    1.    1.    1.    1.    1.    1.    1.    1.    1.
 1.    1.    1.    1.    1.    1.    1.    0.999 0.999 0.998 0.99  0.99
 0.904 0.9   0.093 0.085 0.035 0.003 0.003]
-331.84641720499326
2-norm (grad),       max(grad):
1.713372482232103 ,  0.5192766406596052
W =  469.8109429246309
|umat| =  5.580558113829496
homo-lumo gap =  0.01361806239116048
ne-Nocc =  -3.552713678800501e-15
-0.4298969317642159
[1.    1.    1.    1.    1.    1.    1.    1.    1.    1.    1.    1.
 1.    1.    1.    0.988 0.988 0.987 0.935 0.821 0.821 0.231 0.231]
-151.39175399240614
homo-lumo gap =  0.019374763121149052
ne-Nocc =  0.0
-0.5788689005427314
[1.    1.    1.    1.    1.    1.    1.    1.    1.    1.    1.    1.
 1.    1.    1.    1.    1.    1.    1.    1.    1.    1.    1.    1.
 1.    1.    1.    1.    1.    1.    1.    1.    1.    1.    1.    1.
 1.    1.    1.    1.    1.    1.    1.    1.    1.    1.    0.998 0.998
 0.852 0.852 0.107 0.099 0.05  0.022 0.022]
-331.8898847996133
2-norm (grad),       max(grad):
0.5952551265927126 ,  0.16569091289186988
W =  469.7860217461207
|umat| =  5.489750971706726
homo-lumo gap =  0.021065005233537992
ne-Nocc =  0.0
-0.42351300410356435
[1.    1.    1.    1.    1.    1.    1.    1.    1.    1.    1.    1.
 1.    1.    1.    0.987 0.983 0.983 0.947 0.946 0.906 0.125 0.123]
-151.27386147076774
homo-lumo gap =  0.015606953019158043
ne-Nocc =  -7.105427357601002e-15
-0.5723432547074514
[1.    1.    1.    1.    1.    1.    1.    1.    1.    1.    1.    1.
 1.    1.    1.    1.    1.    1.    1.    1.    1.    1.    1.    1.
 1.    1.    1.    1.    1.    1.    1.    1.    1.    1.    1.    1.
 1.    1.    1.    1.    1.    1.    1.    1.    1.    1.    0.999 0.999
 0.772 0.769 0.128 0.128 0.076 0.075 0.053 0.001]
-331.63247445418057
2-norm (grad),       max(grad):
0.5227881084067442 ,  0.1795903889603101
W =  469.7698284662391
|umat| =  5.424028962111017
homo-lumo gap =  0.02057686139669651
ne-Nocc =  6.394884621840902e-14
-0.41813687099306546
[1.    1.    1.    1.    1.    1.    1.    1.    1.    1.    1.    1.
 1.    1.    1.    0.995 0.995 0.989 0.934 0.933 0.901 0.129 0.124]
-151.18997470281855
homo-lumo gap =  0.0180577551709743
ne-Nocc =  1.4210854715202004e-14
-0.5687007811740138
[1.    1.    1.    1.    1.    1.    1.    1.    1.    1.    1.    1.
 1.    1.    1.    1.    1.    1.    1.    1.    1.    1.    1.    1.
 1.    1.    1.    1.    1.    1.    1.    1.    1.    1.    1.    1.
 1.    1.    1.    1.    1.    1.    1.    1.    1.    1.    1.    0.999
 0.79  0.786 0.09  0.09  0.086 0.085 0.071 0.002]
-331.4953957566311
2-norm (grad),       max(grad):
0.4178619108729975 ,  0.1489882118177277
W =  469.76040837692995
|umat| =  5.388800892414969
homo-lumo gap =  0.015377450017701855
ne-Nocc =  1.7763568394002505e-14
-0.42065543313102366
[1.    1.    1.    1.    1.    1.    1.    1.    1.    1.    1.    1.
 1.    1.    1.    0.997 0.997 0.988 0.957 0.87  0.851 0.209 0.13 ]
-151.22059848520425
homo-lumo gap =  0.028458453577820286
ne-Nocc =  0.0
-0.5734452799124522
[1.    1.    1.    1.    1.    1.    1.    1.    1.    1.    1.    1.
 1.    1.    1.    1.    1.    1.    1.    1.    1.    1.    1.    1.
 1.    1.    1.    1.    1.    1.    1.    1.    1.    1.    1.    1.
 1.    1.    1.    1.    1.    1.    1.    1.    1.    1.    1.    0.989
 0.978 0.926 0.04  0.022 0.022 0.014 0.008 0.001]
-331.5782568136011
2-norm (grad),       max(grad):
1.4116399197093572 ,  0.7698938651517132
W =  469.75839147143574
|umat| =  5.442582214188544
homo-lumo gap =  0.012293212384995034
ne-Nocc =  0.0
-0.4278773453016779
[1.    1.    1.    1.    1.    1.    1.    1.    1.    1.    1.    1.
 1.    1.    1.    0.989 0.989 0.981 0.927 0.896 0.788 0.241 0.189]
-151.31065405916908
homo-lumo gap =  0.02713150662357766
ne-Nocc =  -4.973799150320701e-14
-0.5776373375886357
[1.    1.    1.    1.    1.    1.    1.    1.    1.    1.    1.    1.
 1.    1.    1.    1.    1.    1.    1.    1.    1.    1.    1.    1.
 1.    1.    1.    1.    1.    1.    1.    1.    1.    1.    1.    1.
 1.    1.    1.    1.    1.    1.    1.    1.    1.    1.    1.    0.988
 0.962 0.933 0.058 0.023 0.023 0.006 0.006]
-331.75885176955336
2-norm (grad),       max(grad):
0.6814004934467812 ,  0.2632152916541822
W =  469.7370253207799
|umat| =  5.521031720850338
homo-lumo gap =  0.01928904345960536
ne-Nocc =  0.0
-0.43707557110644
[1.    1.    1.    1.    1.    1.    1.    1.    1.    1.    1.    1.
 1.    1.    1.    0.973 0.951 0.944 0.937 0.937 0.913 0.182 0.162]
-151.4626036984043
homo-lumo gap =  0.022313222402863042
ne-Nocc =  0.0
-0.5859840886997052
[1.    1.    1.    1.    1.    1.    1.    1.    1.    1.    1.    1.
 1.    1.    1.    1.    1.    1.    1.    1.    1.    1.    1.    1.
 1.    1.    1.    1.    1.    1.    1.    1.    1.    1.    1.    1.
 1.    1.    1.    1.    1.    1.    1.    1.    1.    0.999 0.999 0.982
 0.928 0.922 0.12  0.025 0.023 0.002 0.002]
[...]
Nact  = number of active bounds at final generalized Cauchy point
Projg = norm of the final projected gradient
F     = final function value

           * * *

   N    Tit     Tnf  Tnint  Skip  Nact     Projg        F
10153      8     10      1     0     0   6.335D-05   4.717D+02
  F =   471.67479188032610     

CONVERGENCE: REL_REDUCTION_OF_F_<=_FACTR*EPSMCH             

 Cauchy                time 0.000E+00 seconds.
 Subspace minimization time 0.000E+00 seconds.
 Line search           time 0.000E+00 seconds.

 Total User time 0.000E+00 seconds.

RUNNING THE L-BFGS-B CODE

           * * *

Machine precision = 2.220D-16
 N =        10153     M =           10

At X0         0 variables are exactly at the bounds

At iterate    0    f=  4.71676D+02    |proj g|=  3.66335D-04

At iterate    1    f=  4.71676D+02    |proj g|=  1.85233D-04

At iterate    2    f=  4.71676D+02    |proj g|=  6.02418D-05

At iterate    3    f=  4.71676D+02    |proj g|=  1.07367D-04

At iterate    4    f=  4.71676D+02    |proj g|=  7.12206D-05

At iterate    5    f=  4.71676D+02    |proj g|=  7.63757D-05

At iterate    6    f=  4.71676D+02    |proj g|=  6.33193D-05

At iterate    7    f=  4.71676D+02    |proj g|=  7.71006D-05

At iterate    8    f=  4.71676D+02    |proj g|=  2.91194D-05

           * * *

Tit   = total number of iterations
Tnf   = total number of function evaluations
Tnint = total number of segments explored during Cauchy searches
Skip  = number of BFGS updates skipped
Nact  = number of active bounds at final generalized Cauchy point
Projg = norm of the final projected gradient
F     = final function value

           * * *

   N    Tit     Tnf  Tnint  Skip  Nact     Projg        F
10153      8     11      1     0     0   2.912D-05   4.717D+02
  F =   471.67564408251729     

CONVERGENCE: NORM_OF_PROJECTED_GRADIENT_<=_PGTOL            

 Cauchy                time 0.000E+00 seconds.
 Subspace minimization time 0.000E+00 seconds.
 Line search           time 0.000E+00 seconds.

 Total User time 0.000E+00 seconds.

RUNNING THE L-BFGS-B CODE

           * * *

Machine precision = 2.220D-16
 N =        10153     M =           10

At X0         0 variables are exactly at the bounds

At iterate    0    f=  4.71676D+02    |proj g|=  1.58780D-04

At iterate    1    f=  4.71676D+02    |proj g|=  1.01759D-04

At iterate    2    f=  4.71676D+02    |proj g|=  7.62936D-05

At iterate    3    f=  4.71676D+02    |proj g|=  8.27478D-05

At iterate    4    f=  4.71676D+02    |proj g|=  9.87985D-05

           * * *

Tit   = total number of iterations
Tnf   = total number of function evaluations
Tnint = total number of segments explored during Cauchy searches
Skip  = number of BFGS updates skipped
Nact  = number of active bounds at final generalized Cauchy point
Projg = norm of the final projected gradient
F     = final function value

           * * *

   N    Tit     Tnf  Tnint  Skip  Nact     Projg        F
10153      4      6      1     0     0   9.880D-05   4.717D+02
  F =   471.67587927202038     

CONVERGENCE: REL_REDUCTION_OF_F_<=_FACTR*EPSMCH             

 Cauchy                time 0.000E+00 seconds.
 Subspace minimization time 0.000E+00 seconds.
 Line search           time 0.000E+00 seconds.

 Total User time 0.000E+00 seconds.

RUNNING THE L-BFGS-B CODE

           * * *

Machine precision = 2.220D-16
 N =        10153     M =           10

At X0         0 variables are exactly at the bounds

At iterate    0    f=  4.71676D+02    |proj g|=  1.97872D-04

At iterate    1    f=  4.71676D+02    |proj g|=  7.96947D-05

At iterate    2    f=  4.71676D+02    |proj g|=  5.54459D-05

           * * *

Tit   = total number of iterations
Tnf   = total number of function evaluations
Tnint = total number of segments explored during Cauchy searches
Skip  = number of BFGS updates skipped
Nact  = number of active bounds at final generalized Cauchy point
Projg = norm of the final projected gradient
F     = final function value

           * * *

   N    Tit     Tnf  Tnint  Skip  Nact     Projg        F
10153      2      4      1     0     0   5.545D-05   4.717D+02
  F =   471.67584444904151     

CONVERGENCE: REL_REDUCTION_OF_F_<=_FACTR*EPSMCH             

 Cauchy                time 0.000E+00 seconds.
 Subspace minimization time 0.000E+00 seconds.
 Line search           time 0.000E+00 seconds.

 Total User time 0.000E+00 seconds.

RUNNING THE L-BFGS-B CODE

           * * *

Machine precision = 2.220D-16
 N =        10153     M =           10

At X0         0 variables are exactly at the bounds

At iterate    0    f=  4.71676D+02    |proj g|=  2.04187D-04

At iterate    1    f=  4.71676D+02    |proj g|=  9.67974D-05

At iterate    2    f=  4.71676D+02    |proj g|=  8.17787D-05

           * * *

Tit   = total number of iterations
Tnf   = total number of function evaluations
Tnint = total number of segments explored during Cauchy searches
Skip  = number of BFGS updates skipped
Nact  = number of active bounds at final generalized Cauchy point
Projg = norm of the final projected gradient
F     = final function value

           * * *

   N    Tit     Tnf  Tnint  Skip  Nact     Projg        F
10153      2      4      1     0     0   8.178D-05   4.717D+02
  F =   471.67574245937135     

CONVERGENCE: REL_REDUCTION_OF_F_<=_FACTR*EPSMCH             

 Cauchy                time 0.000E+00 seconds.
 Subspace minimization time 0.000E+00 seconds.
 Line search           time 0.000E+00 seconds.

 Total User time 0.000E+00 seconds.

RUNNING THE L-BFGS-B CODE

           * * *

Machine precision = 2.220D-16
 N =        10153     M =           10

At X0         0 variables are exactly at the bounds

At iterate    0    f=  4.71676D+02    |proj g|=  1.44256D-04

At iterate    1    f=  4.71676D+02    |proj g|=  1.46513D-04

At iterate    2    f=  4.71676D+02    |proj g|=  1.31792D-04

At iterate    3    f=  4.71676D+02    |proj g|=  1.58443D-04

At iterate    4    f=  4.71676D+02    |proj g|=  1.69066D-04

           * * *

Tit   = total number of iterations
Tnf   = total number of function evaluations
Tnint = total number of segments explored during Cauchy searches
Skip  = number of BFGS updates skipped
Nact  = number of active bounds at final generalized Cauchy point
Projg = norm of the final projected gradient
F     = final function value

           * * *

   N    Tit     Tnf  Tnint  Skip  Nact     Projg        F
10153      4      7      1     0     0   1.691D-04   4.717D+02
  F =   471.67572746201881     

CONVERGENCE: REL_REDUCTION_OF_F_<=_FACTR*EPSMCH             

 Cauchy                time 0.000E+00 seconds.
 Subspace minimization time 0.000E+00 seconds.
 Line search           time 0.000E+00 seconds.

 Total User time 0.000E+00 seconds.

RUNNING THE L-BFGS-B CODE

           * * *

Machine precision = 2.220D-16
 N =        10153     M =           10

At X0         0 variables are exactly at the bounds

At iterate    0    f=  4.71676D+02    |proj g|=  3.93497D-04

At iterate    1    f=  4.71676D+02    |proj g|=  1.66811D-04

At iterate    2    f=  4.71676D+02    |proj g|=  1.36537D-04

At iterate    3    f=  4.71676D+02    |proj g|=  9.05309D-05

At iterate    4    f=  4.71676D+02    |proj g|=  4.73067D-05

           * * *

Tit   = total number of iterations
Tnf   = total number of function evaluations
Tnint = total number of segments explored during Cauchy searches
homo-lumo gap =  0.1256972171402565
ne-Nocc =  0.0
-0.6153455051557064
[1. 1. 1. 1. 1. 1. 1. 1. 1. 1. 1. 1. 1. 1. 1. 1. 1. 1. 1. 1. 1.]
-155.99594910278935
homo-lumo gap =  0.1140352785151787
ne-Nocc =  0.0
-0.7550049108571268
[1. 1. 1. 1. 1. 1. 1. 1. 1. 1. 1. 1. 1. 1. 1. 1. 1. 1. 1. 1. 1. 1. 1. 1.
 1. 1. 1. 1. 1. 1. 1. 1. 1. 1. 1. 1. 1. 1. 1. 1. 1. 1. 1. 1. 1. 1. 1. 1.
 1. 1.]
-341.964888387718
diffP_max_imp, diffP_max_bath 
4.357241781997544e-05 9.05431086464292e-05
 OEP iteration  13
|umat| =  7.020014770803524
homo-lumo gap =  0.12569724010709726
ne-Nocc =  0.0
-0.6153453670459684
[1. 1. 1. 1. 1. 1. 1. 1. 1. 1. 1. 1. 1. 1. 1. 1. 1. 1. 1. 1. 1.]
-155.99593764280067
homo-lumo gap =  0.114035392041832
ne-Nocc =  0.0
-0.7550045332793882
[1. 1. 1. 1. 1. 1. 1. 1. 1. 1. 1. 1. 1. 1. 1. 1. 1. 1. 1. 1. 1. 1. 1. 1.
 1. 1. 1. 1. 1. 1. 1. 1. 1. 1. 1. 1. 1. 1. 1. 1. 1. 1. 1. 1. 1. 1. 1. 1.
 1. 1.]
-341.9648482895866
2-norm (grad),       max(grad):
0.0003061254920298324 ,  0.00012900605203232355
W =  471.6756625748078
|umat| =  7.14930452812974
homo-lumo gap =  0.2918957534900632
ne-Nocc =  7.105427357601002e-15
-0.5267481338300201
[1. 1. 1. 1. 1. 1. 1. 1. 1. 1. 1. 1. 1. 1. 1. 1. 1. 1. 1. 1. 1.]
-157.92119310527806
homo-lumo gap =  0.2382243640789089
ne-Nocc =  7.105427357601002e-15
-0.7063275643185133
[1. 1. 1. 1. 1. 1. 1. 1. 1. 1. 1. 1. 1. 1. 1. 1. 1. 1. 1. 1. 1. 1. 1. 1.
 1. 1. 1. 1. 1. 1. 1. 1. 1. 1. 1. 1. 1. 1. 1. 1. 1. 1. 1. 1. 1. 1. 1. 1.
 1. 1.]
-345.3102561234086
2-norm (grad),       max(grad):
3.993929684910715 ,  0.9772703263740227
W =  476.8538463219734
|umat| =  7.020014630861826
homo-lumo gap =  0.12569743890278484
ne-Nocc =  0.0
-0.6153453066728425
[1. 1. 1. 1. 1. 1. 1. 1. 1. 1. 1. 1. 1. 1. 1. 1. 1. 1. 1. 1. 1.]
-155.9959337427344
homo-lumo gap =  0.11403690187593396
ne-Nocc =  0.0
-0.7550043467561012
[1. 1. 1. 1. 1. 1. 1. 1. 1. 1. 1. 1. 1. 1. 1. 1. 1. 1. 1. 1. 1. 1. 1. 1.
 1. 1. 1. 1. 1. 1. 1. 1. 1. 1. 1. 1. 1. 1. 1. 1. 1. 1. 1. 1. 1. 1. 1. 1.
 1. 1.]
-341.9648533311377
2-norm (grad),       max(grad):
0.00012828760517999595 ,  3.944768992483548e-05
W =  471.675662570491
homo-lumo gap =  0.12569743890278484
ne-Nocc =  0.0
-0.6153453066728425
[1. 1. 1. 1. 1. 1. 1. 1. 1. 1. 1. 1. 1. 1. 1. 1. 1. 1. 1. 1. 1.]
-155.9959337427344
homo-lumo gap =  0.11403690187593396
ne-Nocc =  0.0
-0.7550043467561012
[1. 1. 1. 1. 1. 1. 1. 1. 1. 1. 1. 1. 1. 1. 1. 1. 1. 1. 1. 1. 1. 1. 1. 1.
 1. 1. 1. 1. 1. 1. 1. 1. 1. 1. 1. 1. 1. 1. 1. 1. 1. 1. 1. 1. 1. 1. 1. 1.
 1. 1.]
-341.9648533311377
diffP_max_imp, diffP_max_bath 
4.318282925144765e-05 5.851156245357192e-05
 OEP iteration  14
|umat| =  7.020014630861826
homo-lumo gap =  0.12569743851622894
ne-Nocc =  0.0
-0.6153453637244085
[1. 1. 1. 1. 1. 1. 1. 1. 1. 1. 1. 1. 1. 1. 1. 1. 1. 1. 1. 1. 1.]
-155.99593603952476
homo-lumo gap =  0.11403674837640809
ne-Nocc =  0.0
-0.7550043186282123
[1. 1. 1. 1. 1. 1. 1. 1. 1. 1. 1. 1. 1. 1. 1. 1. 1. 1. 1. 1. 1. 1. 1. 1.
 1. 1. 1. 1. 1. 1. 1. 1. 1. 1. 1. 1. 1. 1. 1. 1. 1. 1. 1. 1. 1. 1. 1. 1.
 1. 1.]
-341.9648430088239
2-norm (grad),       max(grad):
0.0002690942449002968 ,  0.00010086444567347527
W =  471.675654545104
|umat| =  7.142752999777843
homo-lumo gap =  0.21298916634168102
ne-Nocc =  0.0
-0.5311518527471807
[1. 1. 1. 1. 1. 1. 1. 1. 1. 1. 1. 1. 1. 1. 1. 1. 1. 1. 1. 1. 1.]
-157.3668117638751
homo-lumo gap =  0.20460345596134444
ne-Nocc =  0.0
-0.7236618894975014
[1. 1. 1. 1. 1. 1. 1. 1. 1. 1. 1. 1. 1. 1. 1. 1. 1. 1. 1. 1. 1. 1. 1. 1.
 1. 1. 1. 1. 1. 1. 1. 1. 1. 1. 1. 1. 1. 1. 1. 1. 1. 1. 1. 1. 1. 1. 1. 1.
 1. 1.]
-344.8917693359125
2-norm (grad),       max(grad):
3.8292119856783007 ,  1.0598497813388676
W =  475.8681948513095
|umat| =  7.020014388150683
homo-lumo gap =  0.125697686158468
ne-Nocc =  0.0
-0.6153452892460046
[1. 1. 1. 1. 1. 1. 1. 1. 1. 1. 1. 1. 1. 1. 1. 1. 1. 1. 1. 1. 1.]
-155.99593116281443
homo-lumo gap =  0.11403863620506527
ne-Nocc =  7.105427357601002e-15
-0.7550040858987732
[1. 1. 1. 1. 1. 1. 1. 1. 1. 1. 1. 1. 1. 1. 1. 1. 1. 1. 1. 1. 1. 1. 1. 1.
 1. 1. 1. 1. 1. 1. 1. 1. 1. 1. 1. 1. 1. 1. 1. 1. 1. 1. 1. 1. 1. 1. 1. 1.
 1. 1.]
-341.964849314526
2-norm (grad),       max(grad):
0.00017568338895023486 ,  6.696279505140854e-05
W =  471.6756545401875
|umat| =  7.020013805184812
homo-lumo gap =  0.1256982072841497
ne-Nocc =  0.0
-0.6153451321956355
[1. 1. 1. 1. 1. 1. 1. 1. 1. 1. 1. 1. 1. 1. 1. 1. 1. 1. 1. 1. 1.]
-155.99592096372675
homo-lumo gap =  0.11404258754573837
ne-Nocc =  0.0
-0.7550035985030784
[1. 1. 1. 1. 1. 1. 1. 1. 1. 1. 1. 1. 1. 1. 1. 1. 1. 1. 1. 1. 1. 1. 1. 1.
 1. 1. 1. 1. 1. 1. 1. 1. 1. 1. 1. 1. 1. 1. 1. 1. 1. 1. 1. 1. 1. 1. 1. 1.
 1. 1.]
-341.9648625077918
2-norm (grad),       max(grad):
0.000170174935906912 ,  5.191802000589132e-05
W =  471.67565453558683
homo-lumo gap =  0.1256982072841497
ne-Nocc =  0.0
-0.6153451321956355
[1. 1. 1. 1. 1. 1. 1. 1. 1. 1. 1. 1. 1. 1. 1. 1. 1. 1. 1. 1. 1.]
-155.99592096372675
homo-lumo gap =  0.11404258754573837
ne-Nocc =  0.0
-0.7550035985030784
[1. 1. 1. 1. 1. 1. 1. 1. 1. 1. 1. 1. 1. 1. 1. 1. 1. 1. 1. 1. 1. 1. 1. 1.
 1. 1. 1. 1. 1. 1. 1. 1. 1. 1. 1. 1. 1. 1. 1. 1. 1. 1. 1. 1. 1. 1. 1. 1.
 1. 1.]
-341.9648625077918
diffP_max_imp, diffP_max_bath 
3.269812552246397e-05 4.420022943821356e-05
time of oep : 929.680  (cpu),  46.835  (wall) 
in verify_scf


******** <class 'pydmfet.qcwrap.pyscf_rks.rhf_pyscf'> flags ********
method = rhf_pyscf
initial guess = minao
damping factor = 0
level shift factor = 0.0
DIIS = <class 'pyscf.scf.diis.CDIIS'>
DIIS start cycle = 1
DIIS space = 8
SCF tol = 1e-09
SCF gradient tol = None
max. SCF cycles = 50
direct_scf = True
direct_scf_tol = 1e-13
chkfile to save SCF result = /tmp/tmpWH5UZB
max_memory 24000 MB (current use 2573 MB)
Set gradient conv threshold to 3.16228e-05
init E= -430.590799441615
HOMO: -0.679182080092853 LUMO: -0.5534839265037298
-0.6153451439369675
[2. 2. 2. 2. 2. 2. 2. 2. 2. 2. 2. 2. 2. 2. 2. 2. 2. 2. 2. 2. 2.]
cycle= 1 E= -430.590801061482  delta_E= -1.62e-06  |g|= 3.13e-05  |ddm|= 0.000238
HOMO: -0.6791820937500583 LUMO: -0.5534839435096075
-0.6153451570792969
[2. 2. 2. 2. 2. 2. 2. 2. 2. 2. 2. 2. 2. 2. 2. 2. 2. 2. 2. 2. 2.]
cycle= 2 E= -430.590801076967  delta_E= -1.55e-08  |g|= 4.84e-05  |ddm|= 0.000393
HOMO: -0.679182059852959 LUMO: -0.5534839161682565
-0.6153451364326631
[2. 2. 2. 2. 2. 2. 2. 2. 2. 2. 2. 2. 2. 2. 2. 2. 2. 2. 2. 2. 2.]
cycle= 3 E= -430.590801052717  delta_E= 2.42e-08  |g|= 6.69e-06  |ddm|= 0.00102
HOMO: -0.6791820599586859 LUMO: -0.5534839157797744
-0.6153451362891533
[2. 2. 2. 2. 2. 2. 2. 2. 2. 2. 2. 2. 2. 2. 2. 2. 2. 2. 2. 2. 2.]
cycle= 4 E= -430.590801052706  delta_E= 1.13e-11  |g|= 6.66e-06  |ddm|= 1.83e-06
HOMO: -0.6791820543323925 LUMO: -0.5534839317496545
-0.6153451418689144
[2. 2. 2. 2. 2. 2. 2. 2. 2. 2. 2. 2. 2. 2. 2. 2. 2. 2. 2. 2. 2.]
Extra cycle  E= -430.590801053302  delta_E= -5.96e-10  |g|= 8.44e-06  |ddm|= 8.07e-05
converged SCF energy = -430.590801053302


******** <class 'pydmfet.qcwrap.pyscf_rks.rhf_pyscf'> flags ********
method = rhf_pyscf
initial guess = minao
damping factor = 0
level shift factor = 0.0
DIIS = <class 'pyscf.scf.diis.CDIIS'>
DIIS start cycle = 1
DIIS space = 8
SCF tol = 1e-09
SCF gradient tol = None
max. SCF cycles = 50
direct_scf = True
direct_scf_tol = 1e-13
chkfile to save SCF result = /tmp/tmpb7Cd63
max_memory 24000 MB (current use 2985 MB)
Set gradient conv threshold to 3.16228e-05
init E= -1171.93168129854
HOMO: -0.8142603155846161 LUMO: -0.700218019378897
-0.7550041252702607
[2. 2. 2. 2. 2. 2. 2. 2. 2. 2. 2. 2. 2. 2. 2. 2. 2. 2. 2. 2. 2. 2. 2. 2.
 2. 2. 2. 2. 2. 2. 2. 2. 2. 2. 2. 2. 2. 2. 2. 2. 2. 2. 2. 2. 2. 2. 2. 2.
 2. 2.]
cycle= 1 E= -1171.93169084094  delta_E= -9.54e-06  |g|= 2.4e-05  |ddm|= 0.000317
HOMO: -0.8142606879814699 LUMO: -0.7002190545086022
-0.7550050785955662
[2. 2. 2. 2. 2. 2. 2. 2. 2. 2. 2. 2. 2. 2. 2. 2. 2. 2. 2. 2. 2. 2. 2. 2.
 2. 2. 2. 2. 2. 2. 2. 2. 2. 2. 2. 2. 2. 2. 2. 2. 2. 2. 2. 2. 2. 2. 2. 2.
 2. 2.]
cycle= 2 E= -1171.93169088908  delta_E= -4.81e-08  |g|= 5.2e-05  |ddm|= 0.000655
HOMO: -0.8142602661122175 LUMO: -0.7002173168471085
-0.7550035213612829
[2. 2. 2. 2. 2. 2. 2. 2. 2. 2. 2. 2. 2. 2. 2. 2. 2. 2. 2. 2. 2. 2. 2. 2.
 2. 2. 2. 2. 2. 2. 2. 2. 2. 2. 2. 2. 2. 2. 2. 2. 2. 2. 2. 2. 2. 2. 2. 2.
 2. 2.]
cycle= 3 E= -1171.93169083011  delta_E= 5.9e-08  |g|= 7.45e-06  |ddm|= 0.00117
HOMO: -0.8142598430370496 LUMO: -0.7002166039133485
-0.7550029852546535
[2. 2. 2. 2. 2. 2. 2. 2. 2. 2. 2. 2. 2. 2. 2. 2. 2. 2. 2. 2. 2. 2. 2. 2.
 2. 2. 2. 2. 2. 2. 2. 2. 2. 2. 2. 2. 2. 2. 2. 2. 2. 2. 2. 2. 2. 2. 2. 2.
 2. 2.]
cycle= 4 E= -1171.93169082705  delta_E= 3.06e-09  |g|= 4.07e-06  |ddm|= 0.000296
HOMO: -0.814259773951394 LUMO: -0.7002167659347174
-0.7550030323473159
[2. 2. 2. 2. 2. 2. 2. 2. 2. 2. 2. 2. 2. 2. 2. 2. 2. 2. 2. 2. 2. 2. 2. 2.
 2. 2. 2. 2. 2. 2. 2. 2. 2. 2. 2. 2. 2. 2. 2. 2. 2. 2. 2. 2. 2. 2. 2. 2.
 2. 2.]
cycle= 5 E= -1171.93169082665  delta_E= 3.98e-10  |g|= 3.5e-06  |ddm|= 4.71e-05
HOMO: -0.8142599264993389 LUMO: -0.7002163342064197
-0.7550028799779859
[2. 2. 2. 2. 2. 2. 2. 2. 2. 2. 2. 2. 2. 2. 2. 2. 2. 2. 2. 2. 2. 2. 2. 2.
 2. 2. 2. 2. 2. 2. 2. 2. 2. 2. 2. 2. 2. 2. 2. 2. 2. 2. 2. 2. 2. 2. 2. 2.
 2. 2.]
Extra cycle  E= -1171.9316908276  delta_E= -9.49e-10  |g|= 4.6e-06  |ddm|= 0.000105
converged SCF energy = -1171.9316908276
scf energies:
-416.9281273173735 -1159.3092159978912 -1576.2373433152648
0.0004363404215759028
0.00030491191336479454
|P_frag + P_env - P_ref| =  0.0004392494040706988
max element of (P_frag + P_env - P_ref) =  8.264638154508351e-05
check orthogonality
0.00014355167219677606 4.9396372586748014e-05
|P_imp-P_imp_0| 3.771479374562933 0.6463208645195617
|P_bath-P_bath_0| 2.150809359813975 0.629380528636678
|diffP_ao| =  5.011361346289119 max(diffP_ao) =  0.30511116537971184
time of sdmfet : 2173.400  (cpu),  118.842  (wall) 
time of total calc : 3580.820  (cpu),  189.735  (wall) 
Skip  = number of BFGS updates skipped
Nact  = number of active bounds at final generalized Cauchy point
Projg = norm of the final projected gradient
F     = final function value

           * * *

   N    Tit     Tnf  Tnint  Skip  Nact     Projg        F
10153      4      7      1     0     0   4.731D-05   4.717D+02
  F =   471.67571413307223     

CONVERGENCE: NORM_OF_PROJECTED_GRADIENT_<=_PGTOL            

 Cauchy                time 0.000E+00 seconds.
 Subspace minimization time 0.000E+00 seconds.
 Line search           time 0.000E+00 seconds.

 Total User time 0.000E+00 seconds.

RUNNING THE L-BFGS-B CODE

           * * *

Machine precision = 2.220D-16
 N =        10153     M =           10

At X0         0 variables are exactly at the bounds

At iterate    0    f=  4.71676D+02    |proj g|=  1.29006D-04

At iterate    1    f=  4.71676D+02    |proj g|=  3.94477D-05

           * * *

Tit   = total number of iterations
Tnf   = total number of function evaluations
Tnint = total number of segments explored during Cauchy searches
Skip  = number of BFGS updates skipped
Nact  = number of active bounds at final generalized Cauchy point
Projg = norm of the final projected gradient
F     = final function value

           * * *

   N    Tit     Tnf  Tnint  Skip  Nact     Projg        F
10153      1      3      1     0     0   3.945D-05   4.717D+02
  F =   471.67566257049100     

CONVERGENCE: NORM_OF_PROJECTED_GRADIENT_<=_PGTOL            

 Cauchy                time 0.000E+00 seconds.
 Subspace minimization time 0.000E+00 seconds.
 Line search           time 0.000E+00 seconds.

 Total User time 0.000E+00 seconds.

RUNNING THE L-BFGS-B CODE

           * * *

Machine precision = 2.220D-16
 N =        10153     M =           10

At X0         0 variables are exactly at the bounds

At iterate    0    f=  4.71676D+02    |proj g|=  1.00864D-04

At iterate    1    f=  4.71676D+02    |proj g|=  6.69628D-05

At iterate    2    f=  4.71676D+02    |proj g|=  5.19180D-05

           * * *

Tit   = total number of iterations
Tnf   = total number of function evaluations
Tnint = total number of segments explored during Cauchy searches
Skip  = number of BFGS updates skipped
Nact  = number of active bounds at final generalized Cauchy point
Projg = norm of the final projected gradient
F     = final function value

           * * *

   N    Tit     Tnf  Tnint  Skip  Nact     Projg        F
10153      2      4      1     0     0   5.192D-05   4.717D+02
  F =   471.67565453558683     

CONVERGENCE: REL_REDUCTION_OF_F_<=_FACTR*EPSMCH             

 Cauchy                time 0.000E+00 seconds.
 Subspace minimization time 0.000E+00 seconds.
 Line search           time 0.000E+00 seconds.

 Total User time 0.000E+00 seconds.

