/usr/licensed/anaconda/5.0.1/lib/python2.7/site-packages/h5py/__init__.py:34: FutureWarning: Conversion of the second argument of issubdtype from `float` to `np.floating` is deprecated. In future, it will be treated as `np.float64 == np.dtype(float).type`.
  from ._conv import register_converters as _register_converters
#INFO: **** input file is /tigress/xingz/pydmfet/examples/C24_dfet_ao.py ****
from pydmfet import oep, tools
from pydmfet.dfet_ao import dfet
from pyscf import gto, scf
import numpy as np
import time

bas = 'ccpvdz'

t0 = (time.clock(), time.time())
mol = gto.Mole()
mol.atom = open('C24.xyz').read()
mol.basis = bas
mol.charge = 0
mol.symmetry=False
mol.build(max_memory = 48000, verbose=4)

mf = scf.RKS(mol)
mf.xc = 'hf'
mf.max_cycle = 100
mf.scf()

t1 = tools.timer("full scf", t0)

natoms = mol.natm
impAtom = np.zeros([natoms], dtype=int)
for i in range(6):
    impAtom[i] = 1

ghost_frag = 1-impAtom
ghost_env = 1-ghost_frag

mol_frag = gto.Mole()
mol_frag.atom = tools.add_ghost(mol.atom, ghost_frag)
mol_frag.charge = -6
mol_frag.basis = bas
mol_frag.symmetry=False
mol_frag.build(max_memory = 48000,verbose = 3)

mol_env = gto.Mole()
mol_env.atom = tools.add_ghost(mol.atom, ghost_env)
mol_env.charge = 6
mol_env.basis =  bas
mol_env.symmetry=False
mol_env.build(max_memory = 48000,verbose = 3)

#Ne_frag = 42
boundary_atoms = np.zeros([natoms])
boundary_atoms[6:12] = 1.0
boundary_atoms2 = np.zeros([natoms])
boundary_atoms2[:6] = -1.0

params = oep.OEPparams(algorithm = 'split', opt_method = 'L-BFGS-B', \
                       ftol = 1e-11, gtol = 5e-5,diffP_tol=5e-5, outer_maxit = 200, maxit = 200,l2_lambda = 0.0, oep_print = 0)

theDMFET = dfet.DFET(mf, mol_frag, mol_env,\
                     boundary_atoms=boundary_atoms, boundary_atoms2=boundary_atoms2,\
                     oep_params=params, smear_sigma=0.005, ecw_method = 'ccsd(t)',mf_method = mf.xc)


umat = theDMFET.embedding_potential()

t2 = tools.timer("dfet_ao", t1)
t3 = tools.timer("total calc", t0)
#INFO: ******************** input file end ********************


System: ('Linux', 'tiger-h19c1n21', '3.10.0-862.3.2.el7.x86_64', '#1 SMP Tue May 22 00:28:25 EDT 2018', 'x86_64', 'x86_64')  Threads 40
Python 2.7.14 |Anaconda, Inc.| (default, Oct 16 2017, 17:29:19) 
[GCC 7.2.0]
numpy 1.14.3  scipy 1.1.0
Date: Sat Jun 30 00:07:49 2018
PySCF version 1.5
PySCF path  /tigress/xingz/pyscf_fork/pyscf
GIT ORIG_HEAD 2a04e98fd7e076282a2b183302d17fc6af3d78e6
GIT HEAD      ref: refs/heads/master
GIT master branch  2a04e98fd7e076282a2b183302d17fc6af3d78e6

[CONFIG] conf_file None
[INPUT] verbose = 4
[INPUT] num. atoms = 36
[INPUT] num. electrons = 156
[INPUT] charge = 0
[INPUT] spin (= nelec alpha-beta = 2S) = 0
[INPUT] symmetry False subgroup None
[INPUT] Mole.unit = angstrom
[INPUT]  1 C      1.415320497700  -0.177993684600  -0.000000487000 AA    2.674568119136  -0.336359315796  -0.000000920297 Bohr
[INPUT]  2 C      0.861807271800   1.136706279200  -0.000000371500 AA    1.628579715861   2.148063551761  -0.000000702033 Bohr
[INPUT]  3 C     -0.553513280300   1.314699898400  -0.000000217100 AA   -1.045988506077   2.484422743970  -0.000000410260 Bohr
[INPUT]  4 C     -1.415320263800   0.177993421000  -0.000000324800 AA   -2.674567677129   0.336358817664  -0.000000613783 Bohr
[INPUT]  5 C     -0.861806934900  -1.136706814200  -0.000000327000 AA   -1.628579079212  -2.148064562765  -0.000000617940 Bohr
[INPUT]  6 C      0.553513335800  -1.314700392500  -0.000000388600 AA    1.045988610956  -2.484423677683  -0.000000734348 Bohr
[INPUT]  7 C      2.802009726300  -0.352386493300  -0.000000562400 AA    5.295030981075  -0.665913962333  -0.000001062782 Bohr
[INPUT]  8 C      1.706180444400   2.250417912600  -0.000000300500 AA    3.224213759005   4.252673520629  -0.000000567863 Bohr
[INPUT]  9 C     -1.095829214200   2.602804359600  -0.000000034500 AA   -2.070817094135   4.918587395468  -0.000000065196 Bohr
[INPUT] 10 C     -2.802009489000   0.352386303300  -0.000000235900 AA   -5.295030532642   0.665913603285  -0.000000445786 Bohr
[INPUT] 11 C     -1.706180135000  -2.250418425800  -0.000000115000 AA   -3.224213174323  -4.252674490437  -0.000000217319 Bohr
[INPUT] 12 C      1.095829295600  -2.602804856900  -0.000000442500 AA    2.070817247959  -4.918588335229  -0.000000836204 Bohr
[INPUT] 13 C      3.641071516800   0.798615217100  -0.000000325600 AA    6.880627966707   1.509164039229  -0.000000615295 Bohr
[INPUT] 14 C      3.115829545600   2.046165462900  -0.000000188300 AA    5.888064492012   3.866692330425  -0.000000355835 Bohr
[INPUT] 15 C      1.128914423200   3.552568005700  -0.000000066100 AA    2.133339077919   6.713380569665  -0.000000124911 Bohr
[INPUT] 16 C     -0.214116480800   3.721470304900  -0.000000071600 AA   -0.404621507468   7.032559656963  -0.000000135304 Bohr
[INPUT] 17 C     -2.512156869300   2.753952435900   0.000000049200 AA   -4.747288464922   5.204215863930   0.000000092975 Bohr
[INPUT] 18 C     -3.329946158300   1.675304481100   0.000000000000 AA   -6.292686248735   3.165866644536   0.000000000000 Bohr
[INPUT] 19 C     -3.641071477100  -0.798615740400  -0.000000021800 AA   -6.880627891685  -1.509165028123  -0.000000041196 Bohr
[INPUT] 20 C     -3.115829619100  -2.046165784500  -0.000000067300 AA   -5.888064630907  -3.866692938161  -0.000000127179 Bohr
[INPUT] 21 C     -1.128914345700  -3.552568195500   0.000000074500 AA   -2.133338931466  -6.713380928335   0.000000140785 Bohr
[INPUT] 22 C      0.214116860500  -3.721470555300  -0.000000182200 AA    0.404622224997  -7.032560130150  -0.000000344308 Bohr
[INPUT] 23 C      2.512157333900  -2.753952876500  -0.000000801300 AA    4.747289342889  -5.204216696543  -0.000001514238 Bohr
[INPUT] 24 C      3.329946487400  -1.675305058400  -0.000000823100 AA    6.292686870643  -3.165867735474  -0.000001555434 Bohr
[INPUT] 25 H      4.708051862200   0.660833334800  -0.000000257400 AA    8.896928599807   1.248794016755  -0.000000486416 Bohr
[INPUT] 26 H      3.762955519400   2.905618137400   0.000000148200 AA    7.110955350586   5.490822502255   0.000000280057 Bohr
[INPUT] 27 H      1.781727460400   4.407708975500  -0.000000120700 AA    3.366976928773   8.329362800482  -0.000000228090 Bohr
[INPUT] 28 H     -0.634861498500   4.711624103600   0.000000049100 AA   -1.199714359196   8.903679157703   0.000000092786 Bohr
[INPUT] 29 H     -2.926324340500   3.746875502600   0.000000306600 AA   -5.529951555193   7.080568522756   0.000000579390 Bohr
[INPUT] 30 H     -4.397816973200   1.806005788500  -0.000000010000 AA   -8.310669625312   3.412856319644  -0.000000018897 Bohr
[INPUT] 31 H     -4.708051804400  -0.660833633300   0.000000151900 AA   -8.896928490580  -1.248794580838   0.000000287049 Bohr
[INPUT] 32 H     -3.762955463600  -2.905618556000   0.000000294100 AA   -7.110955245140  -5.490823293294   0.000000555768 Bohr
[INPUT] 33 H     -1.781727253600  -4.407709267800   0.000000274500 AA   -3.366976537977  -8.329363352849   0.000000518730 Bohr
[INPUT] 34 H      0.634861732700  -4.711624420700  -0.000000313500 AA    1.199714801770  -8.903679756936  -0.000000592429 Bohr
[INPUT] 35 H      2.926324614300  -3.746876032700  -0.000000832200 AA    5.529952072600  -7.080569524500  -0.000001572630 Bohr
[INPUT] 36 H      4.397817333700  -1.806006119400  -0.000000949800 AA    8.310670306558  -3.412856944955  -0.000001794862 Bohr

nuclear repulsion = 1841.65162699792
number of shells = 156
number of NR pGTOs = 708
number of NR cGTOs = 396
basis = ccpvdz
ecp = {}
CPU time:         4.57


******** <class 'pyscf.dft.rks.RKS'> flags ********
method = RKS-RHF
initial guess = minao
damping factor = 0
level shift factor = 0
DIIS = <class 'pyscf.scf.diis.CDIIS'>
DIIS start cycle = 1
DIIS space = 8
SCF tol = 1e-09
SCF gradient tol = None
max. SCF cycles = 100
direct_scf = True
direct_scf_tol = 1e-13
chkfile to save SCF result = /tmp/tmpbKQyj_
max_memory 48000 MB (current use 59 MB)
XC functionals = hf
small_rho_cutoff = 1e-07
radial grids: 
    Treutler-Ahlrichs (JCP 102, 346 (M4)) radial grids
    
becke partition: Becke, JCP, 88, 2547 (1988)
pruning grids: <function nwchem_prune at 0x2b8a2365ae60>
grids dens level: 3
symmetrized grids: False
atomic radii adjust function: <function treutler_atomic_radii_adjust at 0x2b8a2365ad70>
Set gradient conv threshold to 3.16228e-05
tot grids = 453936
init E= -928.279384163142
  HOMO = -0.233174682809418  LUMO = -0.0627642276124525
cycle= 1 E= -915.775264166634  delta_E= 12.5  |g|= 0.77  |ddm|= 7.83
  HOMO = -0.253661334830152  LUMO = 0.0637382865595686
cycle= 2 E= -915.997277976268  delta_E= -0.222  |g|= 0.197  |ddm|= 2.24
  HOMO = -0.268265540282335  LUMO = 0.0555926066955664
cycle= 3 E= -916.01408449071  delta_E= -0.0168  |g|= 0.0474  |ddm|= 0.744
  HOMO = -0.260383946014393  LUMO = 0.0642728555460978
cycle= 4 E= -916.014854096327  delta_E= -0.00077  |g|= 0.011  |ddm|= 0.107
  HOMO = -0.261464233408096  LUMO = 0.0641568395624218
cycle= 5 E= -916.014954259808  delta_E= -0.0001  |g|= 0.00522  |ddm|= 0.028
  HOMO = -0.261810308859341  LUMO = 0.0644016380750656
cycle= 6 E= -916.014981310328  delta_E= -2.71e-05  |g|= 0.00223  |ddm|= 0.0138
  HOMO = -0.261830132713881  LUMO = 0.064818340019952
cycle= 7 E= -916.014988149668  delta_E= -6.84e-06  |g|= 0.00111  |ddm|= 0.00958
  HOMO = -0.261919859427142  LUMO = 0.0648119186157294
cycle= 8 E= -916.014988687011  delta_E= -5.37e-07  |g|= 0.000183  |ddm|= 0.0021
  HOMO = -0.261952307895019  LUMO = 0.0647971375595769
cycle= 9 E= -916.014988706829  delta_E= -1.98e-08  |g|= 2.88e-05  |ddm|= 0.000752
  HOMO = -0.261951620149951  LUMO = 0.0647993488650215
cycle= 10 E= -916.014988707315  delta_E= -4.86e-10  |g|= 6.59e-06  |ddm|= 0.000106
  HOMO = -0.261952817436617  LUMO = 0.0647982640364983
Extra cycle  E= -916.014988707332  delta_E= -1.68e-11  |g|= 3.06e-06  |ddm|= 1.41e-05
converged SCF energy = -916.014988707332
time of full scf : 546.310  (cpu),  15.106  (wall) 
HOMO: -1.414374474492666 LUMO: -1.1388755672585082
Ne error =  -6.66489086142974e-11
-1.289374474492666
[2. 2. 2. 2. 2. 2. 2. 2. 2. 2. 2. 2. 2. 2. 2. 2. 2. 2. 2. 2. 2.]
HOMO: -0.09906308957066566 LUMO: 0.07975339049120653
-0.008090095132659658
[2. 2. 2. 2. 2. 2. 2. 2. 2. 2. 2. 2. 2. 2. 2. 2. 2. 2. 2. 2. 2.]
HOMO: -0.3186385243809936 LUMO: 0.06750109721799456
Ne error =  3.0269120543380268e-12
-0.0686385243809936
[2. 2. 2. 2. 2. 2. 2. 2. 2. 2. 2. 2. 2. 2. 2. 2. 2. 2. 2. 2. 2.]
HOMO: -0.3281130087702645 LUMO: 0.07008883105865563
-0.0781130087702645
[2. 2. 2. 2. 2. 2. 2. 2. 2. 2. 2. 2. 2. 2. 2. 2. 2. 2. 2. 2. 2.]
HOMO: -0.32808934830032277 LUMO: 0.0712094123390142
-0.07808934830032277
[2. 2. 2. 2. 2. 2. 2. 2. 2. 2. 2. 2. 2. 2. 2. 2. 2. 2. 2. 2. 2.]
HOMO: -0.3278763516592544 LUMO: 0.07112825658293448
-0.0778763516592544
[2. 2. 2. 2. 2. 2. 2. 2. 2. 2. 2. 2. 2. 2. 2. 2. 2. 2. 2. 2. 2.]
HOMO: -0.3280801201964972 LUMO: 0.071174071681717
-0.07808012019649717
[2. 2. 2. 2. 2. 2. 2. 2. 2. 2. 2. 2. 2. 2. 2. 2. 2. 2. 2. 2. 2.]
HOMO: -0.3280720168458678 LUMO: 0.07117129580264188
-0.07807201684586777
[2. 2. 2. 2. 2. 2. 2. 2. 2. 2. 2. 2. 2. 2. 2. 2. 2. 2. 2. 2. 2.]
HOMO: -0.32807698372738114 LUMO: 0.07117104213404606
-0.07807698372738114
[2. 2. 2. 2. 2. 2. 2. 2. 2. 2. 2. 2. 2. 2. 2. 2. 2. 2. 2. 2. 2.]
HOMO: -0.32807711793838185 LUMO: 0.07117101957519269
-0.07807711793838186
[2. 2. 2. 2. 2. 2. 2. 2. 2. 2. 2. 2. 2. 2. 2. 2. 2. 2. 2. 2. 2.]
converged SCF energy = -276.077217067962
HOMO: 0.7411777625636989 LUMO: 0.7554863478682208
Ne error =  -1.106315039578476e-10
0.7488147831903939
[2.000e+00 2.000e+00 2.000e+00 2.000e+00 2.000e+00 2.000e+00 2.000e+00
 2.000e+00 2.000e+00 2.000e+00 2.000e+00 2.000e+00 2.000e+00 2.000e+00
 2.000e+00 2.000e+00 2.000e+00 2.000e+00 2.000e+00 2.000e+00 2.000e+00
 2.000e+00 2.000e+00 2.000e+00 2.000e+00 2.000e+00 2.000e+00 2.000e+00
 2.000e+00 2.000e+00 2.000e+00 2.000e+00 2.000e+00 2.000e+00 2.000e+00
 2.000e+00 2.000e+00 2.000e+00 2.000e+00 2.000e+00 2.000e+00 2.000e+00
 2.000e+00 2.000e+00 2.000e+00 2.000e+00 2.000e+00 2.000e+00 2.000e+00
 2.000e+00 2.000e+00 2.000e+00 2.000e+00 2.000e+00 2.000e+00 1.643e+00
 1.643e+00 4.169e-01 1.419e-01 1.419e-01 5.799e-03 5.799e-03 1.206e-03]
HOMO: -0.4995123807156921 LUMO: -0.40529320730287033
Ne error =  -8.498091119690798e-12
-0.4515348877724369
[2. 2. 2. 2. 2. 2. 2. 2. 2. 2. 2. 2. 2. 2. 2. 2. 2. 2. 2. 2. 2. 2. 2. 2.
 2. 2. 2. 2. 2. 2. 2. 2. 2. 2. 2. 2. 2. 2. 2. 2. 2. 2. 2. 2. 2. 2. 2. 2.
 2. 2. 2. 2. 2. 2. 2. 2. 2.]
HOMO: -0.28767328807241604 LUMO: -0.07491251102030713
Ne error =  5.977085493213963e-11
-0.18122797557241604
[2. 2. 2. 2. 2. 2. 2. 2. 2. 2. 2. 2. 2. 2. 2. 2. 2. 2. 2. 2. 2. 2. 2. 2.
 2. 2. 2. 2. 2. 2. 2. 2. 2. 2. 2. 2. 2. 2. 2. 2. 2. 2. 2. 2. 2. 2. 2. 2.
 2. 2. 2. 2. 2. 2. 2. 2. 2.]
HOMO: -0.22713734679263559 LUMO: 0.00682710083444456
Ne error =  2.2680524125462398e-11
-0.10994984679263559
[2. 2. 2. 2. 2. 2. 2. 2. 2. 2. 2. 2. 2. 2. 2. 2. 2. 2. 2. 2. 2. 2. 2. 2.
 2. 2. 2. 2. 2. 2. 2. 2. 2. 2. 2. 2. 2. 2. 2. 2. 2. 2. 2. 2. 2. 2. 2. 2.
 2. 2. 2. 2. 2. 2. 2. 2. 2.]
HOMO: -0.23757880067467596 LUMO: -0.003095797855226136
Ne error =  -5.6559201766503975e-12
-0.12039130067467596
[2. 2. 2. 2. 2. 2. 2. 2. 2. 2. 2. 2. 2. 2. 2. 2. 2. 2. 2. 2. 2. 2. 2. 2.
 2. 2. 2. 2. 2. 2. 2. 2. 2. 2. 2. 2. 2. 2. 2. 2. 2. 2. 2. 2. 2. 2. 2. 2.
 2. 2. 2. 2. 2. 2. 2. 2. 2.]
HOMO: -0.23690099655727445 LUMO: -0.003727361364411584
Ne error =  7.197797913249815e-11
-0.11971349655727445
[2. 2. 2. 2. 2. 2. 2. 2. 2. 2. 2. 2. 2. 2. 2. 2. 2. 2. 2. 2. 2. 2. 2. 2.
 2. 2. 2. 2. 2. 2. 2. 2. 2. 2. 2. 2. 2. 2. 2. 2. 2. 2. 2. 2. 2. 2. 2. 2.
 2. 2. 2. 2. 2. 2. 2. 2. 2.]
HOMO: -0.23687826681360846 LUMO: -0.003706149974574854
Ne error =  7.207745511550456e-11
-0.11969076681360846
[2. 2. 2. 2. 2. 2. 2. 2. 2. 2. 2. 2. 2. 2. 2. 2. 2. 2. 2. 2. 2. 2. 2. 2.
 2. 2. 2. 2. 2. 2. 2. 2. 2. 2. 2. 2. 2. 2. 2. 2. 2. 2. 2. 2. 2. 2. 2. 2.
 2. 2. 2. 2. 2. 2. 2. 2. 2.]
HOMO: -0.23689211217527947 LUMO: -0.0036439248358817854
Ne error =  6.698996912746225e-11
-0.11970461217527947
[2. 2. 2. 2. 2. 2. 2. 2. 2. 2. 2. 2. 2. 2. 2. 2. 2. 2. 2. 2. 2. 2. 2. 2.
 2. 2. 2. 2. 2. 2. 2. 2. 2. 2. 2. 2. 2. 2. 2. 2. 2. 2. 2. 2. 2. 2. 2. 2.
 2. 2. 2. 2. 2. 2. 2. 2. 2.]
HOMO: -0.2368645700680437 LUMO: -0.0036109604522123182
Ne error =  6.66346977595822e-11
-0.1196770700680437
[2. 2. 2. 2. 2. 2. 2. 2. 2. 2. 2. 2. 2. 2. 2. 2. 2. 2. 2. 2. 2. 2. 2. 2.
 2. 2. 2. 2. 2. 2. 2. 2. 2. 2. 2. 2. 2. 2. 2. 2. 2. 2. 2. 2. 2. 2. 2. 2.
 2. 2. 2. 2. 2. 2. 2. 2. 2.]
HOMO: -0.2368690873205738 LUMO: -0.0036170415772079486
Ne error =  6.673417374258861e-11
-0.1196815873205738
[2. 2. 2. 2. 2. 2. 2. 2. 2. 2. 2. 2. 2. 2. 2. 2. 2. 2. 2. 2. 2. 2. 2. 2.
 2. 2. 2. 2. 2. 2. 2. 2. 2. 2. 2. 2. 2. 2. 2. 2. 2. 2. 2. 2. 2. 2. 2. 2.
 2. 2. 2. 2. 2. 2. 2. 2. 2.]
HOMO: -0.2368683870355526 LUMO: -0.0036163439390954656
Ne error =  6.673417374258861e-11
-0.1196808870355526
[2. 2. 2. 2. 2. 2. 2. 2. 2. 2. 2. 2. 2. 2. 2. 2. 2. 2. 2. 2. 2. 2. 2. 2.
 2. 2. 2. 2. 2. 2. 2. 2. 2. 2. 2. 2. 2. 2. 2. 2. 2. 2. 2. 2. 2. 2. 2. 2.
 2. 2. 2. 2. 2. 2. 2. 2. 2.]
HOMO: -0.23686858220198753 LUMO: -0.0036165440807232768
Ne error =  6.673417374258861e-11
-0.11968108220198753
[2. 2. 2. 2. 2. 2. 2. 2. 2. 2. 2. 2. 2. 2. 2. 2. 2. 2. 2. 2. 2. 2. 2. 2.
 2. 2. 2. 2. 2. 2. 2. 2. 2. 2. 2. 2. 2. 2. 2. 2. 2. 2. 2. 2. 2. 2. 2. 2.
 2. 2. 2. 2. 2. 2. 2. 2. 2.]
converged SCF energy = -575.998032174998
 OEP iteration  1
|umat| =  0.0
HOMO: -0.3280770324215912 LUMO: 0.07117102687167985
-0.07807703242159118
[2. 2. 2. 2. 2. 2. 2. 2. 2. 2. 2. 2. 2. 2. 2. 2. 2. 2. 2. 2. 2.]
HOMO: -0.3280770324215869 LUMO: 0.07117102687168253
-0.07807703242158692
[2. 2. 2. 2. 2. 2. 2. 2. 2. 2. 2. 2. 2. 2. 2. 2. 2. 2. 2. 2. 2.]
HOMO: -0.328077032421592 LUMO: 0.07117102687168182
-0.07807703242159199
[2. 2. 2. 2. 2. 2. 2. 2. 2. 2. 2. 2. 2. 2. 2. 2. 2. 2. 2. 2. 2.]
converged SCF energy = -7.52850369872158
HOMO: -0.23686854099330432 LUMO: -0.003616503068635307
Ne error =  6.673417374258861e-11
-0.11968104099330432
[2. 2. 2. 2. 2. 2. 2. 2. 2. 2. 2. 2. 2. 2. 2. 2. 2. 2. 2. 2. 2. 2. 2. 2.
 2. 2. 2. 2. 2. 2. 2. 2. 2. 2. 2. 2. 2. 2. 2. 2. 2. 2. 2. 2. 2. 2. 2. 2.
 2. 2. 2. 2. 2. 2. 2. 2. 2.]
HOMO: -0.23686854099330115 LUMO: -0.003616503068634995
Ne error =  6.673417374258861e-11
-0.11968104099330115
[2. 2. 2. 2. 2. 2. 2. 2. 2. 2. 2. 2. 2. 2. 2. 2. 2. 2. 2. 2. 2. 2. 2. 2.
 2. 2. 2. 2. 2. 2. 2. 2. 2. 2. 2. 2. 2. 2. 2. 2. 2. 2. 2. 2. 2. 2. 2. 2.
 2. 2. 2. 2. 2. 2. 2. 2. 2.]
HOMO: -0.23686854099330326 LUMO: -0.003616503068633838
Ne error =  6.673417374258861e-11
-0.11968104099330326
[2. 2. 2. 2. 2. 2. 2. 2. 2. 2. 2. 2. 2. 2. 2. 2. 2. 2. 2. 2. 2. 2. 2. 2.
 2. 2. 2. 2. 2. 2. 2. 2. 2. 2. 2. 2. 2. 2. 2. 2. 2. 2. 2. 2. 2. 2. 2. 2.
 2. 2. 2. 2. 2. 2. 2. 2. 2.]
converged SCF energy = 536.953477399998
2-norm (grad),       max(grad):
29.515384062777482 ,  5.202522368485398
W =  617.4307324100934
|umat| =  1.3282993635094251
HOMO: -0.43417407837475375 LUMO: -0.3246977017270113
Ne error =  3.97193389289896e-12
-0.37943585092076654
[2. 2. 2. 2. 2. 2. 2. 2. 2. 2. 2. 2. 2. 2. 2. 2. 2. 2. 2. 2. 2.]
HOMO: -0.4341740783747495 LUMO: -0.324697701726844
Ne error =  3.964828465541359e-12
-0.37943585092076226
[2. 2. 2. 2. 2. 2. 2. 2. 2. 2. 2. 2. 2. 2. 2. 2. 2. 2. 2. 2. 2.]
HOMO: -0.4341740783747092 LUMO: -0.3246977017266587
Ne error =  3.964828465541359e-12
-0.379435850920722
[2. 2. 2. 2. 2. 2. 2. 2. 2. 2. 2. 2. 2. 2. 2. 2. 2. 2. 2. 2. 2.]
converged SCF energy = -23.6175442952865
HOMO: -0.3495000318529837 LUMO: -0.22841368478215174
-0.2906837336886477
[2. 2. 2. 2. 2. 2. 2. 2. 2. 2. 2. 2. 2. 2. 2. 2. 2. 2. 2. 2. 2. 2. 2. 2.
 2. 2. 2. 2. 2. 2. 2. 2. 2. 2. 2. 2. 2. 2. 2. 2. 2. 2. 2. 2. 2. 2. 2. 2.
 2. 2. 2. 2. 2. 2. 2. 2. 2.]
HOMO: -0.3495000318529842 LUMO: -0.22841368478214938
-0.29068373368864825
[2. 2. 2. 2. 2. 2. 2. 2. 2. 2. 2. 2. 2. 2. 2. 2. 2. 2. 2. 2. 2. 2. 2. 2.
 2. 2. 2. 2. 2. 2. 2. 2. 2. 2. 2. 2. 2. 2. 2. 2. 2. 2. 2. 2. 2. 2. 2. 2.
 2. 2. 2. 2. 2. 2. 2. 2. 2.]
HOMO: -0.3495000318529757 LUMO: -0.22841368478214946
-0.2906837336886397
[2. 2. 2. 2. 2. 2. 2. 2. 2. 2. 2. 2. 2. 2. 2. 2. 2. 2. 2. 2. 2. 2. 2. 2.
 2. 2. 2. 2. 2. 2. 2. 2. 2. 2. 2. 2. 2. 2. 2. 2. 2. 2. 2. 2. 2. 2. 2. 2.
 2. 2. 2. 2. 2. 2. 2. 2. 2.]
converged SCF energy = 521.396368569451
2-norm (grad),       max(grad):
14142.67913823767 ,  1799.1020373285717
W =  650.3894424729914
|umat| =  0.03939669713540177
HOMO: -0.3279694223545403 LUMO: 0.07118527544932599
-0.0779694223545403
[2. 2. 2. 2. 2. 2. 2. 2. 2. 2. 2. 2. 2. 2. 2. 2. 2. 2. 2. 2. 2.]
HOMO: -0.32796942235453924 LUMO: 0.07118527544932765
-0.07796942235453926
[2. 2. 2. 2. 2. 2. 2. 2. 2. 2. 2. 2. 2. 2. 2. 2. 2. 2. 2. 2. 2.]
HOMO: -0.3279694223545374 LUMO: 0.0711852754493306
-0.07796942235453741
[2. 2. 2. 2. 2. 2. 2. 2. 2. 2. 2. 2. 2. 2. 2. 2. 2. 2. 2. 2. 2.]
converged SCF energy = -7.50908165843703
HOMO: -0.23659657930299288 LUMO: -0.0037389434240459644
Ne error =  9.396217137691565e-11
-0.11940907930299288
[2. 2. 2. 2. 2. 2. 2. 2. 2. 2. 2. 2. 2. 2. 2. 2. 2. 2. 2. 2. 2. 2. 2. 2.
 2. 2. 2. 2. 2. 2. 2. 2. 2. 2. 2. 2. 2. 2. 2. 2. 2. 2. 2. 2. 2. 2. 2. 2.
 2. 2. 2. 2. 2. 2. 2. 2. 2.]
HOMO: -0.2365965793029912 LUMO: -0.0037389434240422043
Ne error =  9.396217137691565e-11
-0.11940907930299119
[2. 2. 2. 2. 2. 2. 2. 2. 2. 2. 2. 2. 2. 2. 2. 2. 2. 2. 2. 2. 2. 2. 2. 2.
 2. 2. 2. 2. 2. 2. 2. 2. 2. 2. 2. 2. 2. 2. 2. 2. 2. 2. 2. 2. 2. 2. 2. 2.
 2. 2. 2. 2. 2. 2. 2. 2. 2.]
HOMO: -0.23659657930299152 LUMO: -0.003738943424043851
Ne error =  9.396217137691565e-11
-0.11940907930299152
[2. 2. 2. 2. 2. 2. 2. 2. 2. 2. 2. 2. 2. 2. 2. 2. 2. 2. 2. 2. 2. 2. 2. 2.
 2. 2. 2. 2. 2. 2. 2. 2. 2. 2. 2. 2. 2. 2. 2. 2. 2. 2. 2. 2. 2. 2. 2. 2.
 2. 2. 2. 2. 2. 2. 2. 2. 2.]
converged SCF energy = 536.956879625016
2-norm (grad),       max(grad):
5.206695087369136 ,  0.46477239701517714
W =  617.446837728933
|umat| =  0.012724709657677668
HOMO: -0.3280422261126306 LUMO: 0.07117628130365188
-0.0780422261126306
[2. 2. 2. 2. 2. 2. 2. 2. 2. 2. 2. 2. 2. 2. 2. 2. 2. 2. 2. 2. 2.]
HOMO: -0.3280422261126319 LUMO: 0.07117628130365251
-0.0780422261126319
[2. 2. 2. 2. 2. 2. 2. 2. 2. 2. 2. 2. 2. 2. 2. 2. 2. 2. 2. 2. 2.]
HOMO: -0.32804222611263 LUMO: 0.07117628130364904
-0.07804222611263001
[2. 2. 2. 2. 2. 2. 2. 2. 2. 2. 2. 2. 2. 2. 2. 2. 2. 2. 2. 2. 2.]
converged SCF energy = -7.51006956542949
HOMO: -0.23678056015336651 LUMO: -0.0036560361317271375
Ne error =  7.531752999057062e-11
-0.11959306015336651
[2. 2. 2. 2. 2. 2. 2. 2. 2. 2. 2. 2. 2. 2. 2. 2. 2. 2. 2. 2. 2. 2. 2. 2.
 2. 2. 2. 2. 2. 2. 2. 2. 2. 2. 2. 2. 2. 2. 2. 2. 2. 2. 2. 2. 2. 2. 2. 2.
 2. 2. 2. 2. 2. 2. 2. 2. 2.]
HOMO: -0.23678056015336574 LUMO: -0.0036560361317267377
Ne error =  7.531752999057062e-11
-0.11959306015336574
[2. 2. 2. 2. 2. 2. 2. 2. 2. 2. 2. 2. 2. 2. 2. 2. 2. 2. 2. 2. 2. 2. 2. 2.
 2. 2. 2. 2. 2. 2. 2. 2. 2. 2. 2. 2. 2. 2. 2. 2. 2. 2. 2. 2. 2. 2. 2. 2.
 2. 2. 2. 2. 2. 2. 2. 2. 2.]
HOMO: -0.23678056015336418 LUMO: -0.0036560361317235592
Ne error =  7.531752999057062e-11
-0.11959306015336418
[2. 2. 2. 2. 2. 2. 2. 2. 2. 2. 2. 2. 2. 2. 2. 2. 2. 2. 2. 2. 2. 2. 2. 2.
 2. 2. 2. 2. 2. 2. 2. 2. 2. 2. 2. 2. 2. 2. 2. 2. 2. 2. 2. 2. 2. 2. 2. 2.
 2. 2. 2. 2. 2. 2. 2. 2. 2.]
converged SCF energy = 536.955207496204
2-norm (grad),       max(grad):
4.928331847144982 ,  0.621480131653705
W =  617.4231420177788
|umat| =  0.012990786964444051
HOMO: -0.32800778401261416 LUMO: 0.07117984638221891
-0.07800778401261414
[2. 2. 2. 2. 2. 2. 2. 2. 2. 2. 2. 2. 2. 2. 2. 2. 2. 2. 2. 2. 2.]
HOMO: -0.32800778401261826 LUMO: 0.07117984638221872
-0.07800778401261828
[2. 2. 2. 2. 2. 2. 2. 2. 2. 2. 2. 2. 2. 2. 2. 2. 2. 2. 2. 2. 2.]
HOMO: -0.3280077840126185 LUMO: 0.07117984638221543
-0.0780077840126185
[2. 2. 2. 2. 2. 2. 2. 2. 2. 2. 2. 2. 2. 2. 2. 2. 2. 2. 2. 2. 2.]
converged SCF energy = -7.50394363146165
HOMO: -0.2366935328922315 LUMO: -0.00369526092412635
Ne error =  8.401457307627425e-11
-0.1195060328922315
[2. 2. 2. 2. 2. 2. 2. 2. 2. 2. 2. 2. 2. 2. 2. 2. 2. 2. 2. 2. 2. 2. 2. 2.
 2. 2. 2. 2. 2. 2. 2. 2. 2. 2. 2. 2. 2. 2. 2. 2. 2. 2. 2. 2. 2. 2. 2. 2.
 2. 2. 2. 2. 2. 2. 2. 2. 2.]
HOMO: -0.23669353289223274 LUMO: -0.0036952609241261507
Ne error =  8.401457307627425e-11
-0.11950603289223274
[2. 2. 2. 2. 2. 2. 2. 2. 2. 2. 2. 2. 2. 2. 2. 2. 2. 2. 2. 2. 2. 2. 2. 2.
 2. 2. 2. 2. 2. 2. 2. 2. 2. 2. 2. 2. 2. 2. 2. 2. 2. 2. 2. 2. 2. 2. 2. 2.
 2. 2. 2. 2. 2. 2. 2. 2. 2.]
HOMO: -0.23669353289223166 LUMO: -0.003695260924127253
Ne error =  8.401457307627425e-11
-0.11950603289223166
[2. 2. 2. 2. 2. 2. 2. 2. 2. 2. 2. 2. 2. 2. 2. 2. 2. 2. 2. 2. 2. 2. 2. 2.
 2. 2. 2. 2. 2. 2. 2. 2. 2. 2. 2. 2. 2. 2. 2. 2. 2. 2. 2. 2. 2. 2. 2. 2.
 2. 2. 2. 2. 2. 2. 2. 2. 2.]
converged SCF energy = 536.956505625679
2-norm (grad),       max(grad):
4.122646562511745 ,  0.4094447887752598
W =  617.4130453409939
|umat| =  0.01511942970841112
HOMO: -0.3278924764332681 LUMO: 0.0711873953181054
-0.07789247643326806
[2. 2. 2. 2. 2. 2. 2. 2. 2. 2. 2. 2. 2. 2. 2. 2. 2. 2. 2. 2. 2.]
HOMO: -0.32789247643326497 LUMO: 0.07118739531810865
-0.07789247643326495
[2. 2. 2. 2. 2. 2. 2. 2. 2. 2. 2. 2. 2. 2. 2. 2. 2. 2. 2. 2. 2.]
HOMO: -0.32789247643326636 LUMO: 0.0711873953181053
-0.07789247643326636
[2. 2. 2. 2. 2. 2. 2. 2. 2. 2. 2. 2. 2. 2. 2. 2. 2. 2. 2. 2. 2.]
converged SCF energy = -7.49747678251254
HOMO: -0.23640231303735845 LUMO: -0.003827124701935069
Ne error =  1.1482370609883219e-10
-0.11921481303735845
[2. 2. 2. 2. 2. 2. 2. 2. 2. 2. 2. 2. 2. 2. 2. 2. 2. 2. 2. 2. 2. 2. 2. 2.
 2. 2. 2. 2. 2. 2. 2. 2. 2. 2. 2. 2. 2. 2. 2. 2. 2. 2. 2. 2. 2. 2. 2. 2.
 2. 2. 2. 2. 2. 2. 2. 2. 2.]
HOMO: -0.23640231303735915 LUMO: -0.0038271247019352785
Ne error =  1.1482370609883219e-10
-0.11921481303735915
[2. 2. 2. 2. 2. 2. 2. 2. 2. 2. 2. 2. 2. 2. 2. 2. 2. 2. 2. 2. 2. 2. 2. 2.
 2. 2. 2. 2. 2. 2. 2. 2. 2. 2. 2. 2. 2. 2. 2. 2. 2. 2. 2. 2. 2. 2. 2. 2.
 2. 2. 2. 2. 2. 2. 2. 2. 2.]
HOMO: -0.23640231303736003 LUMO: -0.0038271247019379968
Ne error =  1.1482370609883219e-10
-0.11921481303736003
[2. 2. 2. 2. 2. 2. 2. 2. 2. 2. 2. 2. 2. 2. 2. 2. 2. 2. 2. 2. 2. 2. 2. 2.
 2. 2. 2. 2. 2. 2. 2. 2. 2. 2. 2. 2. 2. 2. 2. 2. 2. 2. 2. 2. 2. 2. 2. 2.
 2. 2. 2. 2. 2. 2. 2. 2. 2.]
converged SCF energy = 536.960144411057
2-norm (grad),       max(grad):
2.972383438284705 ,  0.3488092408560176
W =  617.3950078657332
|umat| =  0.023207420976173523
HOMO: -0.327604852179593 LUMO: 0.07118506804937852
-0.07760485217959301
[2. 2. 2. 2. 2. 2. 2. 2. 2. 2. 2. 2. 2. 2. 2. 2. 2. 2. 2. 2. 2.]
HOMO: -0.32760485217959784 LUMO: 0.07118506804937474
-0.07760485217959782
[2. 2. 2. 2. 2. 2. 2. 2. 2. 2. 2. 2. 2. 2. 2. 2. 2. 2. 2. 2. 2.]
HOMO: -0.3276048521795951 LUMO: 0.07118506804937917
-0.07760485217959512
[2. 2. 2. 2. 2. 2. 2. 2. 2. 2. 2. 2. 2. 2. 2. 2. 2. 2. 2. 2. 2.]
converged SCF energy = -7.49122858101691
HOMO: -0.23567690258119695 LUMO: -0.004159905179224133
Ne error =  -7.408118563034805e-11
-0.12044252758119695
[2. 2. 2. 2. 2. 2. 2. 2. 2. 2. 2. 2. 2. 2. 2. 2. 2. 2. 2. 2. 2. 2. 2. 2.
 2. 2. 2. 2. 2. 2. 2. 2. 2. 2. 2. 2. 2. 2. 2. 2. 2. 2. 2. 2. 2. 2. 2. 2.
 2. 2. 2. 2. 2. 2. 2. 2. 2.]
HOMO: -0.2356769025811947 LUMO: -0.004159905179224195
Ne error =  -7.408118563034805e-11
-0.1204425275811947
[2. 2. 2. 2. 2. 2. 2. 2. 2. 2. 2. 2. 2. 2. 2. 2. 2. 2. 2. 2. 2. 2. 2. 2.
 2. 2. 2. 2. 2. 2. 2. 2. 2. 2. 2. 2. 2. 2. 2. 2. 2. 2. 2. 2. 2. 2. 2. 2.
 2. 2. 2. 2. 2. 2. 2. 2. 2.]
HOMO: -0.23567690258119767 LUMO: -0.0041599051792254454
Ne error =  -7.408118563034805e-11
-0.12044252758119767
[2. 2. 2. 2. 2. 2. 2. 2. 2. 2. 2. 2. 2. 2. 2. 2. 2. 2. 2. 2. 2. 2. 2. 2.
 2. 2. 2. 2. 2. 2. 2. 2. 2. 2. 2. 2. 2. 2. 2. 2. 2. 2. 2. 2. 2. 2. 2. 2.
 2. 2. 2. 2. 2. 2. 2. 2. 2.]
converged SCF energy = 536.966616217604
2-norm (grad),       max(grad):
3.0342287614557555 ,  0.3485551510702045
W =  617.3619395617833
|umat| =  0.08669015472458846
HOMO: -0.3259250158771234 LUMO: 0.07102910827733767
-0.07592501587712341
[2. 2. 2. 2. 2. 2. 2. 2. 2. 2. 2. 2. 2. 2. 2. 2. 2. 2. 2. 2. 2.]
HOMO: -0.3259250158771241 LUMO: 0.0710291082773422
-0.07592501587712408
[2. 2. 2. 2. 2. 2. 2. 2. 2. 2. 2. 2. 2. 2. 2. 2. 2. 2. 2. 2. 2.]
HOMO: -0.32592501587711864 LUMO: 0.07102910827734236
-0.07592501587711864
[2. 2. 2. 2. 2. 2. 2. 2. 2. 2. 2. 2. 2. 2. 2. 2. 2. 2. 2. 2. 2.]
converged SCF energy = -7.50009073520027
HOMO: -0.23146740132683552 LUMO: -0.0062103961440873896
Ne error =  1.7270451735384995e-10
-0.11818615132683552
[2. 2. 2. 2. 2. 2. 2. 2. 2. 2. 2. 2. 2. 2. 2. 2. 2. 2. 2. 2. 2. 2. 2. 2.
 2. 2. 2. 2. 2. 2. 2. 2. 2. 2. 2. 2. 2. 2. 2. 2. 2. 2. 2. 2. 2. 2. 2. 2.
 2. 2. 2. 2. 2. 2. 2. 2. 2.]
HOMO: -0.23146740132683621 LUMO: -0.0062103961440863045
Ne error =  1.7270451735384995e-10
-0.11818615132683621
[2. 2. 2. 2. 2. 2. 2. 2. 2. 2. 2. 2. 2. 2. 2. 2. 2. 2. 2. 2. 2. 2. 2. 2.
 2. 2. 2. 2. 2. 2. 2. 2. 2. 2. 2. 2. 2. 2. 2. 2. 2. 2. 2. 2. 2. 2. 2. 2.
 2. 2. 2. 2. 2. 2. 2. 2. 2.]
HOMO: -0.23146740132683447 LUMO: -0.006210396144086137
Ne error =  1.7270451735384995e-10
-0.11818615132683447
[2. 2. 2. 2. 2. 2. 2. 2. 2. 2. 2. 2. 2. 2. 2. 2. 2. 2. 2. 2. 2. 2. 2. 2.
 2. 2. 2. 2. 2. 2. 2. 2. 2. 2. 2. 2. 2. 2. 2. 2. 2. 2. 2. 2. 2. 2. 2. 2.
 2. 2. 2. 2. 2. 2. 2. 2. 2.]
converged SCF energy = 536.981451493909
2-norm (grad),       max(grad):
13.414199734117412 ,  1.581869031839294
W =  617.2483375220884
|umat| =  0.17954844905131884
HOMO: -0.32374900506093196 LUMO: 0.07071392577170317
-0.07374900506093196
[2. 2. 2. 2. 2. 2. 2. 2. 2. 2. 2. 2. 2. 2. 2. 2. 2. 2. 2. 2. 2.]
HOMO: -0.32374900506093224 LUMO: 0.07071392577170142
-0.07374900506093222
[2. 2. 2. 2. 2. 2. 2. 2. 2. 2. 2. 2. 2. 2. 2. 2. 2. 2. 2. 2. 2.]
HOMO: -0.3237490050609338 LUMO: 0.07071392577170621
-0.07374900506093378
[2. 2. 2. 2. 2. 2. 2. 2. 2. 2. 2. 2. 2. 2. 2. 2. 2. 2. 2. 2. 2.]
converged SCF energy = -7.67566194205267
HOMO: -0.2260986318655983 LUMO: -0.009176674593791694
Ne error =  -3.7971403799019754e-11
-0.11770019436559831
[2. 2. 2. 2. 2. 2. 2. 2. 2. 2. 2. 2. 2. 2. 2. 2. 2. 2. 2. 2. 2. 2. 2. 2.
 2. 2. 2. 2. 2. 2. 2. 2. 2. 2. 2. 2. 2. 2. 2. 2. 2. 2. 2. 2. 2. 2. 2. 2.
 2. 2. 2. 2. 2. 2. 2. 2. 2.]
HOMO: -0.22609863186559712 LUMO: -0.009176674593788818
Ne error =  -3.7971403799019754e-11
-0.11770019436559712
[2. 2. 2. 2. 2. 2. 2. 2. 2. 2. 2. 2. 2. 2. 2. 2. 2. 2. 2. 2. 2. 2. 2. 2.
 2. 2. 2. 2. 2. 2. 2. 2. 2. 2. 2. 2. 2. 2. 2. 2. 2. 2. 2. 2. 2. 2. 2. 2.
 2. 2. 2. 2. 2. 2. 2. 2. 2.]
HOMO: -0.2260986318655978 LUMO: -0.009176674593789085
Ne error =  -3.7971403799019754e-11
-0.11770019436559781
[2. 2. 2. 2. 2. 2. 2. 2. 2. 2. 2. 2. 2. 2. 2. 2. 2. 2. 2. 2. 2. 2. 2. 2.
 2. 2. 2. 2. 2. 2. 2. 2. 2. 2. 2. 2. 2. 2. 2. 2. 2. 2. 2. 2. 2. 2. 2. 2.
 2. 2. 2. 2. 2. 2. 2. 2. 2.]
converged SCF energy = 536.846621059391
2-norm (grad),       max(grad):
150.97574403222438 ,  16.42214469081087
W =  617.4139086158767
|umat| =  0.09712978661194563
HOMO: -0.3256672887707437 LUMO: 0.0709991800476751
-0.07566728877074369
[2. 2. 2. 2. 2. 2. 2. 2. 2. 2. 2. 2. 2. 2. 2. 2. 2. 2. 2. 2. 2.]
HOMO: -0.32566728877074436 LUMO: 0.07099918004767791
-0.07566728877074436
[2. 2. 2. 2. 2. 2. 2. 2. 2. 2. 2. 2. 2. 2. 2. 2. 2. 2. 2. 2. 2.]
HOMO: -0.32566728877074025 LUMO: 0.07099918004767779
-0.07566728877074025
[2. 2. 2. 2. 2. 2. 2. 2. 2. 2. 2. 2. 2. 2. 2. 2. 2. 2. 2. 2. 2.]
converged SCF energy = -7.50210932391053
HOMO: -0.23082603556303108 LUMO: -0.00654206086602347
Ne error =  4.732214620162267e-11
-0.11852134806303108
[2. 2. 2. 2. 2. 2. 2. 2. 2. 2. 2. 2. 2. 2. 2. 2. 2. 2. 2. 2. 2. 2. 2. 2.
 2. 2. 2. 2. 2. 2. 2. 2. 2. 2. 2. 2. 2. 2. 2. 2. 2. 2. 2. 2. 2. 2. 2. 2.
 2. 2. 2. 2. 2. 2. 2. 2. 2.]
HOMO: -0.2308260355630308 LUMO: -0.006542060866023525
Ne error =  4.732214620162267e-11
-0.1185213480630308
[2. 2. 2. 2. 2. 2. 2. 2. 2. 2. 2. 2. 2. 2. 2. 2. 2. 2. 2. 2. 2. 2. 2. 2.
 2. 2. 2. 2. 2. 2. 2. 2. 2. 2. 2. 2. 2. 2. 2. 2. 2. 2. 2. 2. 2. 2. 2. 2.
 2. 2. 2. 2. 2. 2. 2. 2. 2.]
HOMO: -0.2308260355630298 LUMO: -0.006542060866022573
Ne error =  4.732214620162267e-11
-0.1185213480630298
[2. 2. 2. 2. 2. 2. 2. 2. 2. 2. 2. 2. 2. 2. 2. 2. 2. 2. 2. 2. 2. 2. 2. 2.
 2. 2. 2. 2. 2. 2. 2. 2. 2. 2. 2. 2. 2. 2. 2. 2. 2. 2. 2. 2. 2. 2. 2. 2.
 2. 2. 2. 2. 2. 2. 2. 2. 2.]
converged SCF energy = 536.981757991787
2-norm (grad),       max(grad):
10.638166978778564 ,  0.950941353562925
W =  617.2336880930222
|umat| =  0.16030448116676427
HOMO: -0.32417997892221634 LUMO: 0.0707950916233479
-0.07417997892221635
[2. 2. 2. 2. 2. 2. 2. 2. 2. 2. 2. 2. 2. 2. 2. 2. 2. 2. 2. 2. 2.]
HOMO: -0.324179978922215 LUMO: 0.07079509162334707
-0.07417997892221502
[2. 2. 2. 2. 2. 2. 2. 2. 2. 2. 2. 2. 2. 2. 2. 2. 2. 2. 2. 2. 2.]
HOMO: -0.32417997892221395 LUMO: 0.07079509162335065
-0.07417997892221395
[2. 2. 2. 2. 2. 2. 2. 2. 2. 2. 2. 2. 2. 2. 2. 2. 2. 2. 2. 2. 2.]
converged SCF energy = -7.52646860819618
HOMO: -0.2271530289423964 LUMO: -0.008557464491202952
Ne error =  3.966249551012879e-11
-0.11777802894239639
[2. 2. 2. 2. 2. 2. 2. 2. 2. 2. 2. 2. 2. 2. 2. 2. 2. 2. 2. 2. 2. 2. 2. 2.
 2. 2. 2. 2. 2. 2. 2. 2. 2. 2. 2. 2. 2. 2. 2. 2. 2. 2. 2. 2. 2. 2. 2. 2.
 2. 2. 2. 2. 2. 2. 2. 2. 2.]
HOMO: -0.22715302894239495 LUMO: -0.008557464491206786
Ne error =  3.966249551012879e-11
-0.11777802894239495
[2. 2. 2. 2. 2. 2. 2. 2. 2. 2. 2. 2. 2. 2. 2. 2. 2. 2. 2. 2. 2. 2. 2. 2.
 2. 2. 2. 2. 2. 2. 2. 2. 2. 2. 2. 2. 2. 2. 2. 2. 2. 2. 2. 2. 2. 2. 2. 2.
 2. 2. 2. 2. 2. 2. 2. 2. 2.]
HOMO: -0.22715302894239375 LUMO: -0.008557464491202978
Ne error =  3.966249551012879e-11
-0.11777802894239375
[2. 2. 2. 2. 2. 2. 2. 2. 2. 2. 2. 2. 2. 2. 2. 2. 2. 2. 2. 2. 2. 2. 2. 2.
 2. 2. 2. 2. 2. 2. 2. 2. 2. 2. 2. 2. 2. 2. 2. 2. 2. 2. 2. 2. 2. 2. 2. 2.
 2. 2. 2. 2. 2. 2. 2. 2. 2.]
converged SCF energy = 536.980404520601
2-norm (grad),       max(grad):
12.54984616047055 ,  1.404765136499657
W =  617.1636055215032
|umat| =  0.7920765877209358
HOMO: -0.31525406648516446 LUMO: 0.06087177239816533
Ne error =  5.780265155408415e-11
-0.06525406648516445
[2. 2. 2. 2. 2. 2. 2. 2. 2. 2. 2. 2. 2. 2. 2. 2. 2. 2. 2. 2. 2.]
HOMO: -0.3152540664851584 LUMO: 0.06087177239815233
Ne error =  5.780265155408415e-11
-0.06525406648515841
[2. 2. 2. 2. 2. 2. 2. 2. 2. 2. 2. 2. 2. 2. 2. 2. 2. 2. 2. 2. 2.]
HOMO: -0.31525406648517296 LUMO: 0.06087177239813875
Ne error =  5.780265155408415e-11
-0.06525406648517296
[2. 2. 2. 2. 2. 2. 2. 2. 2. 2. 2. 2. 2. 2. 2. 2. 2. 2. 2. 2. 2.]
converged SCF energy = -7.96915111414091
HOMO: -0.2082290271694142 LUMO: -0.06175563609072237
-0.13326994358516145
[2. 2. 2. 2. 2. 2. 2. 2. 2. 2. 2. 2. 2. 2. 2. 2. 2. 2. 2. 2. 2. 2. 2. 2.
 2. 2. 2. 2. 2. 2. 2. 2. 2. 2. 2. 2. 2. 2. 2. 2. 2. 2. 2. 2. 2. 2. 2. 2.
 2. 2. 2. 2. 2. 2. 2. 2. 2.]
HOMO: -0.20822902716941313 LUMO: -0.06175563609075205
-0.1332699435851604
[2. 2. 2. 2. 2. 2. 2. 2. 2. 2. 2. 2. 2. 2. 2. 2. 2. 2. 2. 2. 2. 2. 2. 2.
 2. 2. 2. 2. 2. 2. 2. 2. 2. 2. 2. 2. 2. 2. 2. 2. 2. 2. 2. 2. 2. 2. 2. 2.
 2. 2. 2. 2. 2. 2. 2. 2. 2.]
HOMO: -0.20822902716941316 LUMO: -0.06175563609074759
-0.13326994358516042
[2. 2. 2. 2. 2. 2. 2. 2. 2. 2. 2. 2. 2. 2. 2. 2. 2. 2. 2. 2. 2. 2. 2. 2.
 2. 2. 2. 2. 2. 2. 2. 2. 2. 2. 2. 2. 2. 2. 2. 2. 2. 2. 2. 2. 2. 2. 2. 2.
 2. 2. 2. 2. 2. 2. 2. 2. 2.]
converged SCF energy = 536.667608299933
2-norm (grad),       max(grad):
23.31969043848241 ,  2.630566500194252
W =  616.9764949305924
|umat| =  3.2072764914609877
HOMO: -0.37035963152848145 LUMO: -0.21467632089533245
-0.2925179534183847
[2. 2. 2. 2. 2. 2. 2. 2. 2. 2. 2. 2. 2. 2. 2. 2. 2. 2. 2. 2. 2.]
HOMO: -0.3703596315284871 LUMO: -0.21467632089533323
-0.2925179534183904
[2. 2. 2. 2. 2. 2. 2. 2. 2. 2. 2. 2. 2. 2. 2. 2. 2. 2. 2. 2. 2.]
HOMO: -0.37035963152847146 LUMO: -0.2146763208953285
-0.2925179534183747
[2. 2. 2. 2. 2. 2. 2. 2. 2. 2. 2. 2. 2. 2. 2. 2. 2. 2. 2. 2. 2.]
converged SCF energy = -12.9229453436311
HOMO: -0.43417226670777886 LUMO: -0.37515644010049787
-0.40314234589081
[2.    2.    2.    2.    2.    2.    2.    2.    2.    2.    2.    2.
 2.    2.    2.    2.    2.    2.    2.    2.    2.    2.    2.    2.
 2.    2.    2.    2.    2.    2.    2.    2.    2.    2.    2.    2.
 2.    2.    2.    2.    2.    2.    2.    2.    2.    2.    2.    2.
 2.    2.    2.    2.    2.    2.    2.    1.996 1.996 0.007]
HOMO: -0.4341722667077771 LUMO: -0.37515644010049964
-0.40314234589081255
[2.    2.    2.    2.    2.    2.    2.    2.    2.    2.    2.    2.
 2.    2.    2.    2.    2.    2.    2.    2.    2.    2.    2.    2.
 2.    2.    2.    2.    2.    2.    2.    2.    2.    2.    2.    2.
 2.    2.    2.    2.    2.    2.    2.    2.    2.    2.    2.    2.
 2.    2.    2.    2.    2.    2.    2.    1.996 1.996 0.007]
HOMO: -0.4341722667077774 LUMO: -0.3751564401004984
-0.4031423458908129
[2.    2.    2.    2.    2.    2.    2.    2.    2.    2.    2.    2.
 2.    2.    2.    2.    2.    2.    2.    2.    2.    2.    2.    2.
 2.    2.    2.    2.    2.    2.    2.    2.    2.    2.    2.    2.
 2.    2.    2.    2.    2.    2.    2.    2.    2.    2.    2.    2.
 2.    2.    2.    2.    2.    2.    2.    1.996 1.996 0.007]
converged SCF energy = 530.293558403944
2-norm (grad),       max(grad):
83.27326456763893 ,  10.386286311834843
W =  624.7166422174014
|umat| =  0.8986286139271623
HOMO: -0.31478805517789676 LUMO: 0.052296847497384946
Ne error =  -5.555023108172463e-11
-0.18978805517789676
[2. 2. 2. 2. 2. 2. 2. 2. 2. 2. 2. 2. 2. 2. 2. 2. 2. 2. 2. 2. 2.]
HOMO: -0.31478805517788383 LUMO: 0.05229684749738857
Ne error =  -5.555023108172463e-11
-0.18978805517788383
[2. 2. 2. 2. 2. 2. 2. 2. 2. 2. 2. 2. 2. 2. 2. 2. 2. 2. 2. 2. 2.]
HOMO: -0.31478805517789876 LUMO: 0.05229684749737961
Ne error =  -5.555023108172463e-11
-0.18978805517789876
[2. 2. 2. 2. 2. 2. 2. 2. 2. 2. 2. 2. 2. 2. 2. 2. 2. 2. 2. 2. 2.]
converged SCF energy = -8.06327023676454
HOMO: -0.20813913272324858 LUMO: -0.10147792693172891
Ne error =  -3.637978807091713e-12
-0.15307563605690475
[2. 2. 2. 2. 2. 2. 2. 2. 2. 2. 2. 2. 2. 2. 2. 2. 2. 2. 2. 2. 2. 2. 2. 2.
 2. 2. 2. 2. 2. 2. 2. 2. 2. 2. 2. 2. 2. 2. 2. 2. 2. 2. 2. 2. 2. 2. 2. 2.
 2. 2. 2. 2. 2. 2. 2. 2. 2.]
HOMO: -0.20813913272324905 LUMO: -0.10147792693169955
Ne error =  -3.637978807091713e-12
-0.15307563605690522
[2. 2. 2. 2. 2. 2. 2. 2. 2. 2. 2. 2. 2. 2. 2. 2. 2. 2. 2. 2. 2. 2. 2. 2.
 2. 2. 2. 2. 2. 2. 2. 2. 2. 2. 2. 2. 2. 2. 2. 2. 2. 2. 2. 2. 2. 2. 2. 2.
 2. 2. 2. 2. 2. 2. 2. 2. 2.]
HOMO: -0.20813913272324913 LUMO: -0.10147792693172071
Ne error =  -3.637978807091713e-12
-0.1530756360569053
[2. 2. 2. 2. 2. 2. 2. 2. 2. 2. 2. 2. 2. 2. 2. 2. 2. 2. 2. 2. 2. 2. 2. 2.
 2. 2. 2. 2. 2. 2. 2. 2. 2. 2. 2. 2. 2. 2. 2. 2. 2. 2. 2. 2. 2. 2. 2. 2.
 2. 2. 2. 2. 2. 2. 2. 2. 2.]
converged SCF energy = 536.586567119015
2-norm (grad),       max(grad):
23.187915467682792 ,  2.722251229495154
W =  616.9933253070069
|umat| =  0.811260508094052
HOMO: -0.31514835214123454 LUMO: 0.060257658485223825
Ne error =  7.261036216732464e-11
-0.06514835214123456
[2. 2. 2. 2. 2. 2. 2. 2. 2. 2. 2. 2. 2. 2. 2. 2. 2. 2. 2. 2. 2.]
HOMO: -0.31514835214123205 LUMO: 0.06025765848522476
Ne error =  7.261036216732464e-11
-0.06514835214123205
[2. 2. 2. 2. 2. 2. 2. 2. 2. 2. 2. 2. 2. 2. 2. 2. 2. 2. 2. 2. 2.]
HOMO: -0.31514835214124304 LUMO: 0.060257658485221244
Ne error =  7.261036216732464e-11
-0.06514835214124304
[2. 2. 2. 2. 2. 2. 2. 2. 2. 2. 2. 2. 2. 2. 2. 2. 2. 2. 2. 2. 2.]
converged SCF energy = -7.98525440811682
HOMO: -0.20814937413524945 LUMO: -0.06882253617581426
-0.13675587592155367
[2. 2. 2. 2. 2. 2. 2. 2. 2. 2. 2. 2. 2. 2. 2. 2. 2. 2. 2. 2. 2. 2. 2. 2.
 2. 2. 2. 2. 2. 2. 2. 2. 2. 2. 2. 2. 2. 2. 2. 2. 2. 2. 2. 2. 2. 2. 2. 2.
 2. 2. 2. 2. 2. 2. 2. 2. 2.]
HOMO: -0.20814937413524798 LUMO: -0.06882253617582587
-0.1367558759215522
[2. 2. 2. 2. 2. 2. 2. 2. 2. 2. 2. 2. 2. 2. 2. 2. 2. 2. 2. 2. 2. 2. 2. 2.
 2. 2. 2. 2. 2. 2. 2. 2. 2. 2. 2. 2. 2. 2. 2. 2. 2. 2. 2. 2. 2. 2. 2. 2.
 2. 2. 2. 2. 2. 2. 2. 2. 2.]
HOMO: -0.20814937413524828 LUMO: -0.06882253617582634
-0.1367558759215525
[2. 2. 2. 2. 2. 2. 2. 2. 2. 2. 2. 2. 2. 2. 2. 2. 2. 2. 2. 2. 2. 2. 2. 2.
 2. 2. 2. 2. 2. 2. 2. 2. 2. 2. 2. 2. 2. 2. 2. 2. 2. 2. 2. 2. 2. 2. 2. 2.
 2. 2. 2. 2. 2. 2. 2. 2. 2.]
converged SCF energy = 536.654045297288
2-norm (grad),       max(grad):
23.16750327686507 ,  2.641596412726174
W =  616.9776530363446
|umat| =  0.7958559355918974
HOMO: -0.3152324800285649 LUMO: 0.060949690554875806
Ne error =  6.021139142831089e-11
-0.0652324800285649
[2. 2. 2. 2. 2. 2. 2. 2. 2. 2. 2. 2. 2. 2. 2. 2. 2. 2. 2. 2. 2.]
HOMO: -0.3152324800285662 LUMO: 0.06094969055485844
Ne error =  6.021139142831089e-11
-0.06523248002856619
[2. 2. 2. 2. 2. 2. 2. 2. 2. 2. 2. 2. 2. 2. 2. 2. 2. 2. 2. 2. 2.]
HOMO: -0.3152324800285865 LUMO: 0.060949690554865585
Ne error =  6.021139142831089e-11
-0.0652324800285865
[2. 2. 2. 2. 2. 2. 2. 2. 2. 2. 2. 2. 2. 2. 2. 2. 2. 2. 2. 2. 2.]
converged SCF energy = -7.9722922858391
HOMO: -0.20821111022795297 LUMO: -0.06314461686652846
-0.1339530357486498
[2. 2. 2. 2. 2. 2. 2. 2. 2. 2. 2. 2. 2. 2. 2. 2. 2. 2. 2. 2. 2. 2. 2. 2.
 2. 2. 2. 2. 2. 2. 2. 2. 2. 2. 2. 2. 2. 2. 2. 2. 2. 2. 2. 2. 2. 2. 2. 2.
 2. 2. 2. 2. 2. 2. 2. 2. 2.]
HOMO: -0.20821111022795355 LUMO: -0.06314461686654023
-0.1339530357486504
[2. 2. 2. 2. 2. 2. 2. 2. 2. 2. 2. 2. 2. 2. 2. 2. 2. 2. 2. 2. 2. 2. 2. 2.
 2. 2. 2. 2. 2. 2. 2. 2. 2. 2. 2. 2. 2. 2. 2. 2. 2. 2. 2. 2. 2. 2. 2. 2.
 2. 2. 2. 2. 2. 2. 2. 2. 2.]
HOMO: -0.20821111022795563 LUMO: -0.06314461686651994
-0.13395303574865247
[2. 2. 2. 2. 2. 2. 2. 2. 2. 2. 2. 2. 2. 2. 2. 2. 2. 2. 2. 2. 2. 2. 2. 2.
 2. 2. 2. 2. 2. 2. 2. 2. 2. 2. 2. 2. 2. 2. 2. 2. 2. 2. 2. 2. 2. 2. 2. 2.
 2. 2. 2. 2. 2. 2. 2. 2. 2.]
converged SCF energy = 536.664973517787
2-norm (grad),       max(grad):
23.28291955229641 ,  2.632500151532489
W =  616.9766545561548
|umat| =  0.7928338870131265
HOMO: -0.3152497111316164 LUMO: 0.06088819506730859
Ne error =  5.826450433232822e-11
-0.06524971113161637
[2. 2. 2. 2. 2. 2. 2. 2. 2. 2. 2. 2. 2. 2. 2. 2. 2. 2. 2. 2. 2.]
HOMO: -0.31524971113161815 LUMO: 0.06088819506731843
Ne error =  5.826450433232822e-11
-0.06524971113161815
[2. 2. 2. 2. 2. 2. 2. 2. 2. 2. 2. 2. 2. 2. 2. 2. 2. 2. 2. 2. 2.]
HOMO: -0.3152497111316125 LUMO: 0.06088819506731062
Ne error =  5.826450433232822e-11
-0.06524971113161249
[2. 2. 2. 2. 2. 2. 2. 2. 2. 2. 2. 2. 2. 2. 2. 2. 2. 2. 2. 2. 2.]
converged SCF energy = -7.96977928690774
HOMO: -0.20822534940841356 LUMO: -0.062033828273955344
-0.1334066562755275
[2. 2. 2. 2. 2. 2. 2. 2. 2. 2. 2. 2. 2. 2. 2. 2. 2. 2. 2. 2. 2. 2. 2. 2.
 2. 2. 2. 2. 2. 2. 2. 2. 2. 2. 2. 2. 2. 2. 2. 2. 2. 2. 2. 2. 2. 2. 2. 2.
 2. 2. 2. 2. 2. 2. 2. 2. 2.]
HOMO: -0.2082253494084129 LUMO: -0.06203382827394815
-0.13340665627552684
[2. 2. 2. 2. 2. 2. 2. 2. 2. 2. 2. 2. 2. 2. 2. 2. 2. 2. 2. 2. 2. 2. 2. 2.
 2. 2. 2. 2. 2. 2. 2. 2. 2. 2. 2. 2. 2. 2. 2. 2. 2. 2. 2. 2. 2. 2. 2. 2.
 2. 2. 2. 2. 2. 2. 2. 2. 2.]
HOMO: -0.2082253494084127 LUMO: -0.06203382827395047
-0.13340665627552664
[2. 2. 2. 2. 2. 2. 2. 2. 2. 2. 2. 2. 2. 2. 2. 2. 2. 2. 2. 2. 2. 2. 2. 2.
 2. 2. 2. 2. 2. 2. 2. 2. 2. 2. 2. 2. 2. 2. 2. 2. 2. 2. 2. 2. 2. 2. 2. 2.
 2. 2. 2. 2. 2. 2. 2. 2. 2.]
converged SCF energy = 536.667081824193
2-norm (grad),       max(grad):
23.312030026750897 ,  2.6309440634387586
W =  616.9765241871505
|umat| =  0.7922288467197529
HOMO: -0.31525318961492665 LUMO: 0.060875108019597675
Ne error =  5.789502210973296e-11
-0.06525318961492665
[2. 2. 2. 2. 2. 2. 2. 2. 2. 2. 2. 2. 2. 2. 2. 2. 2. 2. 2. 2. 2.]
HOMO: -0.3152531896149204 LUMO: 0.060875108019593935
Ne error =  5.789502210973296e-11
-0.0652531896149204
[2. 2. 2. 2. 2. 2. 2. 2. 2. 2. 2. 2. 2. 2. 2. 2. 2. 2. 2. 2. 2.]
HOMO: -0.31525318961492715 LUMO: 0.060875108019616424
Ne error =  5.789502210973296e-11
-0.06525318961492714
[2. 2. 2. 2. 2. 2. 2. 2. 2. 2. 2. 2. 2. 2. 2. 2. 2. 2. 2. 2. 2.]
converged SCF energy = -7.96927736108796
HOMO: -0.20822828420922063 LUMO: -0.06181156286442731
-0.13329742338597858
[2. 2. 2. 2. 2. 2. 2. 2. 2. 2. 2. 2. 2. 2. 2. 2. 2. 2. 2. 2. 2. 2. 2. 2.
 2. 2. 2. 2. 2. 2. 2. 2. 2. 2. 2. 2. 2. 2. 2. 2. 2. 2. 2. 2. 2. 2. 2. 2.
 2. 2. 2. 2. 2. 2. 2. 2. 2.]
HOMO: -0.20822828420921852 LUMO: -0.061811562864405444
-0.13329742338597647
[2. 2. 2. 2. 2. 2. 2. 2. 2. 2. 2. 2. 2. 2. 2. 2. 2. 2. 2. 2. 2. 2. 2. 2.
 2. 2. 2. 2. 2. 2. 2. 2. 2. 2. 2. 2. 2. 2. 2. 2. 2. 2. 2. 2. 2. 2. 2. 2.
 2. 2. 2. 2. 2. 2. 2. 2. 2.]
HOMO: -0.20822828420922054 LUMO: -0.06181156286440502
-0.1332974233859785
[2. 2. 2. 2. 2. 2. 2. 2. 2. 2. 2. 2. 2. 2. 2. 2. 2. 2. 2. 2. 2. 2. 2. 2.
 2. 2. 2. 2. 2. 2. 2. 2. 2. 2. 2. 2. 2. 2. 2. 2. 2. 2. 2. 2. 2. 2. 2. 2.
 2. 2. 2. 2. 2. 2. 2. 2. 2.]
converged SCF energy = 536.667502508815
2-norm (grad),       max(grad):
23.31813828447103 ,  2.6306420086355153
W =  616.9765007026311
|umat| =  0.7921072209223275
HOMO: -0.31525389001772136 LUMO: 0.060872444871585565
Ne error =  5.782396783615695e-11
-0.06525389001772135
[2. 2. 2. 2. 2. 2. 2. 2. 2. 2. 2. 2. 2. 2. 2. 2. 2. 2. 2. 2. 2.]
HOMO: -0.31525389001772497 LUMO: 0.06087244487161159
Ne error =  5.782396783615695e-11
-0.06525389001772497
[2. 2. 2. 2. 2. 2. 2. 2. 2. 2. 2. 2. 2. 2. 2. 2. 2. 2. 2. 2. 2.]
HOMO: -0.31525389001772214 LUMO: 0.06087244487160217
Ne error =  5.782396783615695e-11
-0.06525389001772215
[2. 2. 2. 2. 2. 2. 2. 2. 2. 2. 2. 2. 2. 2. 2. 2. 2. 2. 2. 2. 2.]
converged SCF energy = -7.96917651189722
HOMO: -0.20822887754955807 LUMO: -0.06176688786527077
-0.13327547199664347
[2. 2. 2. 2. 2. 2. 2. 2. 2. 2. 2. 2. 2. 2. 2. 2. 2. 2. 2. 2. 2. 2. 2. 2.
 2. 2. 2. 2. 2. 2. 2. 2. 2. 2. 2. 2. 2. 2. 2. 2. 2. 2. 2. 2. 2. 2. 2. 2.
 2. 2. 2. 2. 2. 2. 2. 2. 2.]
HOMO: -0.2082288775495546 LUMO: -0.061766887865269265
-0.13327547199664
[2. 2. 2. 2. 2. 2. 2. 2. 2. 2. 2. 2. 2. 2. 2. 2. 2. 2. 2. 2. 2. 2. 2. 2.
 2. 2. 2. 2. 2. 2. 2. 2. 2. 2. 2. 2. 2. 2. 2. 2. 2. 2. 2. 2. 2. 2. 2. 2.
 2. 2. 2. 2. 2. 2. 2. 2. 2.]
HOMO: -0.20822887754955643 LUMO: -0.06176688786526993
-0.13327547199664183
[2. 2. 2. 2. 2. 2. 2. 2. 2. 2. 2. 2. 2. 2. 2. 2. 2. 2. 2. 2. 2. 2. 2. 2.
 2. 2. 2. 2. 2. 2. 2. 2. 2. 2. 2. 2. 2. 2. 2. 2. 2. 2. 2. 2. 2. 2. 2. 2.
 2. 2. 2. 2. 2. 2. 2. 2. 2.]
converged SCF energy = 536.667587018081
2-norm (grad),       max(grad):
23.319377671774678 ,  2.63058167552535
W =  616.9764960874185
|umat| =  0.7920827516971726
HOMO: -0.31525403097461985 LUMO: 0.060871907768180154
Ne error =  5.780975698144175e-11
-0.06525403097461986
[2. 2. 2. 2. 2. 2. 2. 2. 2. 2. 2. 2. 2. 2. 2. 2. 2. 2. 2. 2. 2.]
HOMO: -0.3152540309746176 LUMO: 0.0608719077681529
Ne error =  5.780975698144175e-11
-0.06525403097461764
[2. 2. 2. 2. 2. 2. 2. 2. 2. 2. 2. 2. 2. 2. 2. 2. 2. 2. 2. 2. 2.]
HOMO: -0.31525403097462307 LUMO: 0.0608719077681697
Ne error =  5.780975698144175e-11
-0.06525403097462305
[2. 2. 2. 2. 2. 2. 2. 2. 2. 2. 2. 2. 2. 2. 2. 2. 2. 2. 2. 2. 2.]
converged SCF energy = -7.96915622456413
HOMO: -0.20822899705730788 LUMO: -0.06175790015079914
-0.1332710560160187
[2. 2. 2. 2. 2. 2. 2. 2. 2. 2. 2. 2. 2. 2. 2. 2. 2. 2. 2. 2. 2. 2. 2. 2.
 2. 2. 2. 2. 2. 2. 2. 2. 2. 2. 2. 2. 2. 2. 2. 2. 2. 2. 2. 2. 2. 2. 2. 2.
 2. 2. 2. 2. 2. 2. 2. 2. 2.]
HOMO: -0.20822899705730877 LUMO: -0.06175790015085274
-0.1332710560160196
[2. 2. 2. 2. 2. 2. 2. 2. 2. 2. 2. 2. 2. 2. 2. 2. 2. 2. 2. 2. 2. 2. 2. 2.
 2. 2. 2. 2. 2. 2. 2. 2. 2. 2. 2. 2. 2. 2. 2. 2. 2. 2. 2. 2. 2. 2. 2. 2.
 2. 2. 2. 2. 2. 2. 2. 2. 2.]
HOMO: -0.20822899705730968 LUMO: -0.06175790015081514
-0.13327105601602052
[2. 2. 2. 2. 2. 2. 2. 2. 2. 2. 2. 2. 2. 2. 2. 2. 2. 2. 2. 2. 2. 2. 2. 2.
 2. 2. 2. 2. 2. 2. 2. 2. 2. 2. 2. 2. 2. 2. 2. 2. 2. 2. 2. 2. 2. 2. 2. 2.
 2. 2. 2. 2. 2. 2. 2. 2. 2.]
converged SCF energy = 536.667604017726
2-norm (grad),       max(grad):
23.319627484225652 ,  2.6305695530968043
W =  616.9764951631831
|umat| =  0.7920778280638607
HOMO: -0.31525405933949413 LUMO: 0.06087179964014596
Ne error =  5.780265155408415e-11
-0.06525405933949413
[2. 2. 2. 2. 2. 2. 2. 2. 2. 2. 2. 2. 2. 2. 2. 2. 2. 2. 2. 2. 2.]
HOMO: -0.3152540593394895 LUMO: 0.06087179964015929
Ne error =  5.780265155408415e-11
-0.06525405933948951
[2. 2. 2. 2. 2. 2. 2. 2. 2. 2. 2. 2. 2. 2. 2. 2. 2. 2. 2. 2. 2.]
HOMO: -0.3152540593394993 LUMO: 0.060871799640147314
Ne error =  5.780265155408415e-11
-0.06525405933949928
[2. 2. 2. 2. 2. 2. 2. 2. 2. 2. 2. 2. 2. 2. 2. 2. 2. 2. 2. 2. 2.]
converged SCF energy = -7.96915214247758
HOMO: -0.20822902110988692 LUMO: -0.06175609167470521
-0.1332701674525247
[2. 2. 2. 2. 2. 2. 2. 2. 2. 2. 2. 2. 2. 2. 2. 2. 2. 2. 2. 2. 2. 2. 2. 2.
 2. 2. 2. 2. 2. 2. 2. 2. 2. 2. 2. 2. 2. 2. 2. 2. 2. 2. 2. 2. 2. 2. 2. 2.
 2. 2. 2. 2. 2. 2. 2. 2. 2.]
HOMO: -0.20822902110988661 LUMO: -0.06175609167470345
-0.1332701674525244
[2. 2. 2. 2. 2. 2. 2. 2. 2. 2. 2. 2. 2. 2. 2. 2. 2. 2. 2. 2. 2. 2. 2. 2.
 2. 2. 2. 2. 2. 2. 2. 2. 2. 2. 2. 2. 2. 2. 2. 2. 2. 2. 2. 2. 2. 2. 2. 2.
 2. 2. 2. 2. 2. 2. 2. 2. 2.]
HOMO: -0.20822902110988697 LUMO: -0.061756091674708566
-0.13327016745252476
[2. 2. 2. 2. 2. 2. 2. 2. 2. 2. 2. 2. 2. 2. 2. 2. 2. 2. 2. 2. 2. 2. 2. 2.
 2. 2. 2. 2. 2. 2. 2. 2. 2. 2. 2. 2. 2. 2. 2. 2. 2. 2. 2. 2. 2. 2. 2. 2.
 2. 2. 2. 2. 2. 2. 2. 2. 2.]
converged SCF energy = 536.667607438252
2-norm (grad),       max(grad):
23.319677769752143 ,  2.630567114484665
W =  616.9764949773867
|umat| =  0.7920768373100173
HOMO: -0.3152540650472586 LUMO: 0.060871777880021585
Ne error =  5.780265155408415e-11
-0.06525406504725861
[2. 2. 2. 2. 2. 2. 2. 2. 2. 2. 2. 2. 2. 2. 2. 2. 2. 2. 2. 2. 2.]
HOMO: -0.315254065047266 LUMO: 0.0608717778800128
Ne error =  5.780265155408415e-11
-0.06525406504726598
[2. 2. 2. 2. 2. 2. 2. 2. 2. 2. 2. 2. 2. 2. 2. 2. 2. 2. 2. 2. 2.]
HOMO: -0.31525406504725717 LUMO: 0.06087177788004316
Ne error =  5.780265155408415e-11
-0.06525406504725717
[2. 2. 2. 2. 2. 2. 2. 2. 2. 2. 2. 2. 2. 2. 2. 2. 2. 2. 2. 2. 2.]
converged SCF energy = -7.9691513210671
HOMO: -0.20822902595007203 LUMO: -0.06175572776599813
-0.13326998862785208
[2. 2. 2. 2. 2. 2. 2. 2. 2. 2. 2. 2. 2. 2. 2. 2. 2. 2. 2. 2. 2. 2. 2. 2.
 2. 2. 2. 2. 2. 2. 2. 2. 2. 2. 2. 2. 2. 2. 2. 2. 2. 2. 2. 2. 2. 2. 2. 2.
 2. 2. 2. 2. 2. 2. 2. 2. 2.]
HOMO: -0.20822902595007206 LUMO: -0.06175572776602067
-0.1332699886278521
[2. 2. 2. 2. 2. 2. 2. 2. 2. 2. 2. 2. 2. 2. 2. 2. 2. 2. 2. 2. 2. 2. 2. 2.
 2. 2. 2. 2. 2. 2. 2. 2. 2. 2. 2. 2. 2. 2. 2. 2. 2. 2. 2. 2. 2. 2. 2. 2.
 2. 2. 2. 2. 2. 2. 2. 2. 2.]
HOMO: -0.20822902595007003 LUMO: -0.06175572776600367
-0.13326998862785008
[2. 2. 2. 2. 2. 2. 2. 2. 2. 2. 2. 2. 2. 2. 2. 2. 2. 2. 2. 2. 2. 2. 2. 2.
 2. 2. 2. 2. 2. 2. 2. 2. 2. 2. 2. 2. 2. 2. 2. 2. 2. 2. 2. 2. 2. 2. 2. 2.
 2. 2. 2. 2. 2. 2. 2. 2. 2.]
converged SCF energy = 536.667608126544
2-norm (grad),       max(grad):
23.31968788916858 ,  2.63056662380589
W =  616.9764949400036
|umat| =  0.7920766379459655
HOMO: -0.3152540661958079 LUMO: 0.06087177350124631
Ne error =  5.780265155408415e-11
-0.06525406619580791
[2. 2. 2. 2. 2. 2. 2. 2. 2. 2. 2. 2. 2. 2. 2. 2. 2. 2. 2. 2. 2.]
HOMO: -0.31525406619581064 LUMO: 0.06087177350126569
Ne error =  5.780265155408415e-11
-0.06525406619581064
[2. 2. 2. 2. 2. 2. 2. 2. 2. 2. 2. 2. 2. 2. 2. 2. 2. 2. 2. 2. 2.]
HOMO: -0.3152540661958093 LUMO: 0.06087177350125062
Ne error =  5.780265155408415e-11
-0.06525406619580931
[2. 2. 2. 2. 2. 2. 2. 2. 2. 2. 2. 2. 2. 2. 2. 2. 2. 2. 2. 2. 2.]
converged SCF energy = -7.96915115577826
HOMO: -0.20822902692404233 LUMO: -0.061755654538644365
-0.13326995268143219
[2. 2. 2. 2. 2. 2. 2. 2. 2. 2. 2. 2. 2. 2. 2. 2. 2. 2. 2. 2. 2. 2. 2. 2.
 2. 2. 2. 2. 2. 2. 2. 2. 2. 2. 2. 2. 2. 2. 2. 2. 2. 2. 2. 2. 2. 2. 2. 2.
 2. 2. 2. 2. 2. 2. 2. 2. 2.]
HOMO: -0.20822902692404593 LUMO: -0.06175565453866617
-0.1332699526814358
[2. 2. 2. 2. 2. 2. 2. 2. 2. 2. 2. 2. 2. 2. 2. 2. 2. 2. 2. 2. 2. 2. 2. 2.
 2. 2. 2. 2. 2. 2. 2. 2. 2. 2. 2. 2. 2. 2. 2. 2. 2. 2. 2. 2. 2. 2. 2. 2.
 2. 2. 2. 2. 2. 2. 2. 2. 2.]
HOMO: -0.2082290269240445 LUMO: -0.061755654538649486
-0.13326995268143435
[2. 2. 2. 2. 2. 2. 2. 2. 2. 2. 2. 2. 2. 2. 2. 2. 2. 2. 2. 2. 2. 2. 2. 2.
 2. 2. 2. 2. 2. 2. 2. 2. 2. 2. 2. 2. 2. 2. 2. 2. 2. 2. 2. 2. 2. 2. 2. 2.
 2. 2. 2. 2. 2. 2. 2. 2. 2.]
converged SCF energy = 536.66760826504
2-norm (grad),       max(grad):
23.31968992548374 ,  2.630566525069615
W =  616.9764949324855
|umat| =  0.7920765978279442
HOMO: -0.3152540664269358 LUMO: 0.06087177262011379
Ne error =  5.780265155408415e-11
-0.06525406642693583
[2. 2. 2. 2. 2. 2. 2. 2. 2. 2. 2. 2. 2. 2. 2. 2. 2. 2. 2. 2. 2.]
HOMO: -0.31525406642692927 LUMO: 0.06087177262013008
Ne error =  5.780265155408415e-11
-0.06525406642692926
[2. 2. 2. 2. 2. 2. 2. 2. 2. 2. 2. 2. 2. 2. 2. 2. 2. 2. 2. 2. 2.]
HOMO: -0.3152540664269309 LUMO: 0.06087177262009835
Ne error =  5.780265155408415e-11
-0.06525406642693088
[2. 2. 2. 2. 2. 2. 2. 2. 2. 2. 2. 2. 2. 2. 2. 2. 2. 2. 2. 2. 2.]
converged SCF energy = -7.96915112251827
HOMO: -0.20822902712003608 LUMO: -0.06175563980313133
-0.1332699454327
[2. 2. 2. 2. 2. 2. 2. 2. 2. 2. 2. 2. 2. 2. 2. 2. 2. 2. 2. 2. 2. 2. 2. 2.
 2. 2. 2. 2. 2. 2. 2. 2. 2. 2. 2. 2. 2. 2. 2. 2. 2. 2. 2. 2. 2. 2. 2. 2.
 2. 2. 2. 2. 2. 2. 2. 2. 2.]
HOMO: -0.20822902712003483 LUMO: -0.06175563980310183
-0.13326994543269874
[2. 2. 2. 2. 2. 2. 2. 2. 2. 2. 2. 2. 2. 2. 2. 2. 2. 2. 2. 2. 2. 2. 2. 2.
 2. 2. 2. 2. 2. 2. 2. 2. 2. 2. 2. 2. 2. 2. 2. 2. 2. 2. 2. 2. 2. 2. 2. 2.
 2. 2. 2. 2. 2. 2. 2. 2. 2.]
HOMO: -0.20822902712003677 LUMO: -0.061755639803088944
-0.13326994543270068
[2. 2. 2. 2. 2. 2. 2. 2. 2. 2. 2. 2. 2. 2. 2. 2. 2. 2. 2. 2. 2. 2. 2. 2.
 2. 2. 2. 2. 2. 2. 2. 2. 2. 2. 2. 2. 2. 2. 2. 2. 2. 2. 2. 2. 2. 2. 2. 2.
 2. 2. 2. 2. 2. 2. 2. 2. 2.]
converged SCF energy = 536.667608292911
2-norm (grad),       max(grad):
23.3196903352499 ,  2.6305665052020393
W =  616.9764949309723
|umat| =  0.792076589755073
HOMO: -0.31525406647343795 LUMO: 0.060871772442808864
Ne error =  5.780265155408415e-11
-0.06525406647343797
[2. 2. 2. 2. 2. 2. 2. 2. 2. 2. 2. 2. 2. 2. 2. 2. 2. 2. 2. 2. 2.]
HOMO: -0.3152540664734474 LUMO: 0.060871772442796644
Ne error =  5.780265155408415e-11
-0.06525406647344738
[2. 2. 2. 2. 2. 2. 2. 2. 2. 2. 2. 2. 2. 2. 2. 2. 2. 2. 2. 2. 2.]
HOMO: -0.31525406647344384 LUMO: 0.060871772442789594
Ne error =  5.780265155408415e-11
-0.06525406647344383
[2. 2. 2. 2. 2. 2. 2. 2. 2. 2. 2. 2. 2. 2. 2. 2. 2. 2. 2. 2. 2.]
converged SCF energy = -7.96915111582518
HOMO: -0.20822902715947628 LUMO: -0.06175563683791058
-0.1332699439746587
[2. 2. 2. 2. 2. 2. 2. 2. 2. 2. 2. 2. 2. 2. 2. 2. 2. 2. 2. 2. 2. 2. 2. 2.
 2. 2. 2. 2. 2. 2. 2. 2. 2. 2. 2. 2. 2. 2. 2. 2. 2. 2. 2. 2. 2. 2. 2. 2.
 2. 2. 2. 2. 2. 2. 2. 2. 2.]
HOMO: -0.20822902715947728 LUMO: -0.06175563683790491
-0.1332699439746597
[2. 2. 2. 2. 2. 2. 2. 2. 2. 2. 2. 2. 2. 2. 2. 2. 2. 2. 2. 2. 2. 2. 2. 2.
 2. 2. 2. 2. 2. 2. 2. 2. 2. 2. 2. 2. 2. 2. 2. 2. 2. 2. 2. 2. 2. 2. 2. 2.
 2. 2. 2. 2. 2. 2. 2. 2. 2.]
HOMO: -0.20822902715947575 LUMO: -0.061755636837903034
-0.13326994397465816
[2. 2. 2. 2. 2. 2. 2. 2. 2. 2. 2. 2. 2. 2. 2. 2. 2. 2. 2. 2. 2. 2. 2. 2.
 2. 2. 2. 2. 2. 2. 2. 2. 2. 2. 2. 2. 2. 2. 2. 2. 2. 2. 2. 2. 2. 2. 2. 2.
 2. 2. 2. 2. 2. 2. 2. 2. 2.]
converged SCF energy = 536.667608298523
2-norm (grad),       max(grad):
23.319690417701864 ,  2.6305665012009567
W =  616.976494930665
|umat| =  0.7920765881312992
HOMO: -0.31525406648280396 LUMO: 0.060871772407142304
Ne error =  5.780265155408415e-11
-0.06525406648280396
[2. 2. 2. 2. 2. 2. 2. 2. 2. 2. 2. 2. 2. 2. 2. 2. 2. 2. 2. 2. 2.]
HOMO: -0.3152540664828018 LUMO: 0.060871772407141235
Ne error =  5.780265155408415e-11
-0.06525406648280181
[2. 2. 2. 2. 2. 2. 2. 2. 2. 2. 2. 2. 2. 2. 2. 2. 2. 2. 2. 2. 2.]
HOMO: -0.31525406648279763 LUMO: 0.06087177240711004
Ne error =  5.780265155408415e-11
-0.06525406648279763
[2. 2. 2. 2. 2. 2. 2. 2. 2. 2. 2. 2. 2. 2. 2. 2. 2. 2. 2. 2. 2.]
converged SCF energy = -7.96915111447981
HOMO: -0.2082290271674103 LUMO: -0.06175563624148634
-0.13326994366955067
[2. 2. 2. 2. 2. 2. 2. 2. 2. 2. 2. 2. 2. 2. 2. 2. 2. 2. 2. 2. 2. 2. 2. 2.
 2. 2. 2. 2. 2. 2. 2. 2. 2. 2. 2. 2. 2. 2. 2. 2. 2. 2. 2. 2. 2. 2. 2. 2.
 2. 2. 2. 2. 2. 2. 2. 2. 2.]
HOMO: -0.20822902716740796 LUMO: -0.06175563624148214
-0.13326994366954834
[2. 2. 2. 2. 2. 2. 2. 2. 2. 2. 2. 2. 2. 2. 2. 2. 2. 2. 2. 2. 2. 2. 2. 2.
 2. 2. 2. 2. 2. 2. 2. 2. 2. 2. 2. 2. 2. 2. 2. 2. 2. 2. 2. 2. 2. 2. 2. 2.
 2. 2. 2. 2. 2. 2. 2. 2. 2.]
HOMO: -0.20822902716740962 LUMO: -0.06175563624147994
-0.13326994366955
[2. 2. 2. 2. 2. 2. 2. 2. 2. 2. 2. 2. 2. 2. 2. 2. 2. 2. 2. 2. 2. 2. 2. 2.
 2. 2. 2. 2. 2. 2. 2. 2. 2. 2. 2. 2. 2. 2. 2. 2. 2. 2. 2. 2. 2. 2. 2. 2.
 2. 2. 2. 2. 2. 2. 2. 2. 2.]
converged SCF energy = 536.66760829965
2-norm (grad),       max(grad):
23.31969043429626 ,  2.6305665003998673
W =  616.9764949306049
|umat| =  0.792076587804274
HOMO: -0.31525406648468524 LUMO: 0.06087177239996815
Ne error =  5.780265155408415e-11
-0.06525406648468524
[2. 2. 2. 2. 2. 2. 2. 2. 2. 2. 2. 2. 2. 2. 2. 2. 2. 2. 2. 2. 2.]
HOMO: -0.31525406648467763 LUMO: 0.06087177239996143
Ne error =  5.780265155408415e-11
-0.06525406648467764
[2. 2. 2. 2. 2. 2. 2. 2. 2. 2. 2. 2. 2. 2. 2. 2. 2. 2. 2. 2. 2.]
HOMO: -0.3152540664846824 LUMO: 0.06087177239995912
Ne error =  5.780265155408415e-11
-0.06525406648468239
[2. 2. 2. 2. 2. 2. 2. 2. 2. 2. 2. 2. 2. 2. 2. 2. 2. 2. 2. 2. 2.]
converged SCF energy = -7.96915111420833
HOMO: -0.20822902716900576 LUMO: -0.0617556361213517
-0.13326994358848593
[2. 2. 2. 2. 2. 2. 2. 2. 2. 2. 2. 2. 2. 2. 2. 2. 2. 2. 2. 2. 2. 2. 2. 2.
 2. 2. 2. 2. 2. 2. 2. 2. 2. 2. 2. 2. 2. 2. 2. 2. 2. 2. 2. 2. 2. 2. 2. 2.
 2. 2. 2. 2. 2. 2. 2. 2. 2.]
HOMO: -0.2082290271690074 LUMO: -0.06175563612135431
-0.13326994358848757
[2. 2. 2. 2. 2. 2. 2. 2. 2. 2. 2. 2. 2. 2. 2. 2. 2. 2. 2. 2. 2. 2. 2. 2.
 2. 2. 2. 2. 2. 2. 2. 2. 2. 2. 2. 2. 2. 2. 2. 2. 2. 2. 2. 2. 2. 2. 2. 2.
 2. 2. 2. 2. 2. 2. 2. 2. 2.]
HOMO: -0.2082290271690081 LUMO: -0.06175563612133925
-0.13326994358848826
[2. 2. 2. 2. 2. 2. 2. 2. 2. 2. 2. 2. 2. 2. 2. 2. 2. 2. 2. 2. 2. 2. 2. 2.
 2. 2. 2. 2. 2. 2. 2. 2. 2. 2. 2. 2. 2. 2. 2. 2. 2. 2. 2. 2. 2. 2. 2. 2.
 2. 2. 2. 2. 2. 2. 2. 2. 2.]
converged SCF energy = 536.667608299876
2-norm (grad),       max(grad):
23.319690437629454 ,  2.6305665002370286
W =  616.976494930592
|umat| =  0.7920765880201105
HOMO: -0.3152540664834336 LUMO: 0.06087177240467828
Ne error =  5.780265155408415e-11
-0.06525406648343361
[2. 2. 2. 2. 2. 2. 2. 2. 2. 2. 2. 2. 2. 2. 2. 2. 2. 2. 2. 2. 2.]
HOMO: -0.3152540664834239 LUMO: 0.06087177240468442
Ne error =  5.780265155408415e-11
-0.06525406648342391
[2. 2. 2. 2. 2. 2. 2. 2. 2. 2. 2. 2. 2. 2. 2. 2. 2. 2. 2. 2. 2.]
HOMO: -0.3152540664834319 LUMO: 0.06087177240469262
Ne error =  5.780265155408415e-11
-0.0652540664834319
[2. 2. 2. 2. 2. 2. 2. 2. 2. 2. 2. 2. 2. 2. 2. 2. 2. 2. 2. 2. 2.]
converged SCF energy = -7.96915111438784
HOMO: -0.20822902716795116 LUMO: -0.06175563620062087
-0.13326994364129383
[2. 2. 2. 2. 2. 2. 2. 2. 2. 2. 2. 2. 2. 2. 2. 2. 2. 2. 2. 2. 2. 2. 2. 2.
 2. 2. 2. 2. 2. 2. 2. 2. 2. 2. 2. 2. 2. 2. 2. 2. 2. 2. 2. 2. 2. 2. 2. 2.
 2. 2. 2. 2. 2. 2. 2. 2. 2.]
HOMO: -0.20822902716795091 LUMO: -0.06175563620064402
-0.13326994364129358
[2. 2. 2. 2. 2. 2. 2. 2. 2. 2. 2. 2. 2. 2. 2. 2. 2. 2. 2. 2. 2. 2. 2. 2.
 2. 2. 2. 2. 2. 2. 2. 2. 2. 2. 2. 2. 2. 2. 2. 2. 2. 2. 2. 2. 2. 2. 2. 2.
 2. 2. 2. 2. 2. 2. 2. 2. 2.]
HOMO: -0.20822902716795233 LUMO: -0.06175563620064925
-0.133269943641295
[2. 2. 2. 2. 2. 2. 2. 2. 2. 2. 2. 2. 2. 2. 2. 2. 2. 2. 2. 2. 2. 2. 2. 2.
 2. 2. 2. 2. 2. 2. 2. 2. 2. 2. 2. 2. 2. 2. 2. 2. 2. 2. 2. 2. 2. 2. 2. 2.
 2. 2. 2. 2. 2. 2. 2. 2. 2.]
converged SCF energy = 536.667608299725
2-norm (grad),       max(grad):
23.319690435423446 ,  2.6305665003441057
W =  616.9764949306036
|umat| =  0.7920765878468479
HOMO: -0.3152540664844418 LUMO: 0.060871772400892685
Ne error =  5.780265155408415e-11
-0.06525406648444183
[2. 2. 2. 2. 2. 2. 2. 2. 2. 2. 2. 2. 2. 2. 2. 2. 2. 2. 2. 2. 2.]
HOMO: -0.3152540664844403 LUMO: 0.060871772400884386
Ne error =  5.780265155408415e-11
-0.06525406648444032
[2. 2. 2. 2. 2. 2. 2. 2. 2. 2. 2. 2. 2. 2. 2. 2. 2. 2. 2. 2. 2.]
HOMO: -0.31525406648443355 LUMO: 0.060871772400920544
Ne error =  5.780265155408415e-11
-0.06525406648443355
[2. 2. 2. 2. 2. 2. 2. 2. 2. 2. 2. 2. 2. 2. 2. 2. 2. 2. 2. 2. 2.]
converged SCF energy = -7.96915111424369
HOMO: -0.2082290271688004 LUMO: -0.061755636136973845
-0.1332699436384102
[2. 2. 2. 2. 2. 2. 2. 2. 2. 2. 2. 2. 2. 2. 2. 2. 2. 2. 2. 2. 2. 2. 2. 2.
 2. 2. 2. 2. 2. 2. 2. 2. 2. 2. 2. 2. 2. 2. 2. 2. 2. 2. 2. 2. 2. 2. 2. 2.
 2. 2. 2. 2. 2. 2. 2. 2. 2.]
HOMO: -0.2082290271687981 LUMO: -0.06175563613697318
-0.13326994363840788
[2. 2. 2. 2. 2. 2. 2. 2. 2. 2. 2. 2. 2. 2. 2. 2. 2. 2. 2. 2. 2. 2. 2. 2.
 2. 2. 2. 2. 2. 2. 2. 2. 2. 2. 2. 2. 2. 2. 2. 2. 2. 2. 2. 2. 2. 2. 2. 2.
 2. 2. 2. 2. 2. 2. 2. 2. 2.]
HOMO: -0.20822902716879704 LUMO: -0.06175563613699574
-0.13326994363840683
[2. 2. 2. 2. 2. 2. 2. 2. 2. 2. 2. 2. 2. 2. 2. 2. 2. 2. 2. 2. 2. 2. 2. 2.
 2. 2. 2. 2. 2. 2. 2. 2. 2. 2. 2. 2. 2. 2. 2. 2. 2. 2. 2. 2. 2. 2. 2. 2.
 2. 2. 2. 2. 2. 2. 2. 2. 2.]
converged SCF energy = 536.667608299847
2-norm (grad),       max(grad):
23.319690437187283 ,  2.630566500256937
W =  616.9764949305946
|umat| =  0.7920765878125932
HOMO: -0.31525406648462634 LUMO: 0.06087177240017356
Ne error =  5.780265155408415e-11
-0.06525406648462635
[2. 2. 2. 2. 2. 2. 2. 2. 2. 2. 2. 2. 2. 2. 2. 2. 2. 2. 2. 2. 2.]
HOMO: -0.31525406648463916 LUMO: 0.06087177240014951
Ne error =  5.780265155408415e-11
-0.06525406648463916
[2. 2. 2. 2. 2. 2. 2. 2. 2. 2. 2. 2. 2. 2. 2. 2. 2. 2. 2. 2. 2.]
HOMO: -0.3152540664846344 LUMO: 0.060871772400140065
Ne error =  5.780265155408415e-11
-0.06525406648463439
[2. 2. 2. 2. 2. 2. 2. 2. 2. 2. 2. 2. 2. 2. 2. 2. 2. 2. 2. 2. 2.]
converged SCF energy = -7.96915111421481
HOMO: -0.2082290271689652 LUMO: -0.061755636124400666
-0.13326994361351013
[2. 2. 2. 2. 2. 2. 2. 2. 2. 2. 2. 2. 2. 2. 2. 2. 2. 2. 2. 2. 2. 2. 2. 2.
 2. 2. 2. 2. 2. 2. 2. 2. 2. 2. 2. 2. 2. 2. 2. 2. 2. 2. 2. 2. 2. 2. 2. 2.
 2. 2. 2. 2. 2. 2. 2. 2. 2.]
HOMO: -0.20822902716896768 LUMO: -0.06175563612440191
-0.13326994361351263
[2. 2. 2. 2. 2. 2. 2. 2. 2. 2. 2. 2. 2. 2. 2. 2. 2. 2. 2. 2. 2. 2. 2. 2.
 2. 2. 2. 2. 2. 2. 2. 2. 2. 2. 2. 2. 2. 2. 2. 2. 2. 2. 2. 2. 2. 2. 2. 2.
 2. 2. 2. 2. 2. 2. 2. 2. 2.]
HOMO: -0.2082290271689653 LUMO: -0.06175563612441938
-0.13326994361351024
[2. 2. 2. 2. 2. 2. 2. 2. 2. 2. 2. 2. 2. 2. 2. 2. 2. 2. 2. 2. 2. 2. 2. 2.
 2. 2. 2. 2. 2. 2. 2. 2. 2. 2. 2. 2. 2. 2. 2. 2. 2. 2. 2. 2. 2. 2. 2. 2.
 2. 2. 2. 2. 2. 2. 2. 2. 2.]
converged SCF energy = 536.667608299872
2-norm (grad),       max(grad):
23.319690437550932 ,  2.630566500239958
W =  616.9764949305912
|umat| =  0.7920765878352019
HOMO: -0.31525406648449417 LUMO: 0.060871772400653106
Ne error =  5.780265155408415e-11
-0.06525406648449417
[2. 2. 2. 2. 2. 2. 2. 2. 2. 2. 2. 2. 2. 2. 2. 2. 2. 2. 2. 2. 2.]
HOMO: -0.3152540664844952 LUMO: 0.060871772400628466
Ne error =  5.780265155408415e-11
-0.06525406648449521
[2. 2. 2. 2. 2. 2. 2. 2. 2. 2. 2. 2. 2. 2. 2. 2. 2. 2. 2. 2. 2.]
HOMO: -0.3152540664845068 LUMO: 0.060871772400641094
Ne error =  5.780265155408415e-11
-0.06525406648450682
[2. 2. 2. 2. 2. 2. 2. 2. 2. 2. 2. 2. 2. 2. 2. 2. 2. 2. 2. 2. 2.]
converged SCF energy = -7.96915111423573
HOMO: -0.2082290271688562 LUMO: -0.061755636132720615
-0.13326994363846598
[2. 2. 2. 2. 2. 2. 2. 2. 2. 2. 2. 2. 2. 2. 2. 2. 2. 2. 2. 2. 2. 2. 2. 2.
 2. 2. 2. 2. 2. 2. 2. 2. 2. 2. 2. 2. 2. 2. 2. 2. 2. 2. 2. 2. 2. 2. 2. 2.
 2. 2. 2. 2. 2. 2. 2. 2. 2.]
HOMO: -0.20822902716885408 LUMO: -0.06175563613269452
-0.13326994363846387
[2. 2. 2. 2. 2. 2. 2. 2. 2. 2. 2. 2. 2. 2. 2. 2. 2. 2. 2. 2. 2. 2. 2. 2.
 2. 2. 2. 2. 2. 2. 2. 2. 2. 2. 2. 2. 2. 2. 2. 2. 2. 2. 2. 2. 2. 2. 2. 2.
 2. 2. 2. 2. 2. 2. 2. 2. 2.]
HOMO: -0.20822902716885505 LUMO: -0.0617556361327012
-0.13326994363846484
[2. 2. 2. 2. 2. 2. 2. 2. 2. 2. 2. 2. 2. 2. 2. 2. 2. 2. 2. 2. 2. 2. 2. 2.
 2. 2. 2. 2. 2. 2. 2. 2. 2. 2. 2. 2. 2. 2. 2. 2. 2. 2. 2. 2. 2. 2. 2. 2.
 2. 2. 2. 2. 2. 2. 2. 2. 2.]
converged SCF energy = 536.667608299857
2-norm (grad),       max(grad):
23.319690437315636 ,  2.6305665002503007
W =  616.9764949305938
|umat| =  0.7920765878167383
HOMO: -0.3152540664846056 LUMO: 0.06087177240023403
Ne error =  5.780265155408415e-11
-0.06525406648460556
[2. 2. 2. 2. 2. 2. 2. 2. 2. 2. 2. 2. 2. 2. 2. 2. 2. 2. 2. 2. 2.]
HOMO: -0.3152540664845974 LUMO: 0.06087177240019914
Ne error =  5.780265155408415e-11
-0.06525406648459742
[2. 2. 2. 2. 2. 2. 2. 2. 2. 2. 2. 2. 2. 2. 2. 2. 2. 2. 2. 2. 2.]
HOMO: -0.3152540664846073 LUMO: 0.06087177240019971
Ne error =  5.780265155408415e-11
-0.0652540664846073
[2. 2. 2. 2. 2. 2. 2. 2. 2. 2. 2. 2. 2. 2. 2. 2. 2. 2. 2. 2. 2.]
converged SCF energy = -7.96915111421947
HOMO: -0.20822902716894579 LUMO: -0.061755636125951745
-0.13326994361349073
[2. 2. 2. 2. 2. 2. 2. 2. 2. 2. 2. 2. 2. 2. 2. 2. 2. 2. 2. 2. 2. 2. 2. 2.
 2. 2. 2. 2. 2. 2. 2. 2. 2. 2. 2. 2. 2. 2. 2. 2. 2. 2. 2. 2. 2. 2. 2. 2.
 2. 2. 2. 2. 2. 2. 2. 2. 2.]
HOMO: -0.20822902716894665 LUMO: -0.06175563612594064
-0.1332699436134916
[2. 2. 2. 2. 2. 2. 2. 2. 2. 2. 2. 2. 2. 2. 2. 2. 2. 2. 2. 2. 2. 2. 2. 2.
 2. 2. 2. 2. 2. 2. 2. 2. 2. 2. 2. 2. 2. 2. 2. 2. 2. 2. 2. 2. 2. 2. 2. 2.
 2. 2. 2. 2. 2. 2. 2. 2. 2.]
HOMO: -0.20822902716894462 LUMO: -0.06175563612593932
-0.13326994361348957
[2. 2. 2. 2. 2. 2. 2. 2. 2. 2. 2. 2. 2. 2. 2. 2. 2. 2. 2. 2. 2. 2. 2. 2.
 2. 2. 2. 2. 2. 2. 2. 2. 2. 2. 2. 2. 2. 2. 2. 2. 2. 2. 2. 2. 2. 2. 2. 2.
 2. 2. 2. 2. 2. 2. 2. 2. 2.]
converged SCF energy = 536.667608299867
2-norm (grad),       max(grad):
23.319690437510214 ,  2.6305665002421916
W =  616.9764949305951
|umat| =  31.32323661512622
HOMO: -0.9665108053682704 LUMO: -0.9665107672222634
-0.9665106724391611
[2. 2. 2. 2. 2. 2. 2. 2. 2. 2. 2. 2. 2. 2. 2. 2. 2. 2. 2. 2. 1. 1.]
HOMO: -0.966510805354823 LUMO: -0.9665107672201739
-0.9665106724313928
[2. 2. 2. 2. 2. 2. 2. 2. 2. 2. 2. 2. 2. 2. 2. 2. 2. 2. 2. 2. 1. 1.]
HOMO: -0.9665108053897971 LUMO: -0.9665107672214599
-0.9665106724495224
[2. 2. 2. 2. 2. 2. 2. 2. 2. 2. 2. 2. 2. 2. 2. 2. 2. 2. 2. 2. 1. 1.]
converged SCF energy = -12432.0018826741
HOMO: -0.5253188546651237 LUMO: -0.525318828565317
Ne error =  -7.389644451905042e-12
-0.527054827685458
[2.    2.    2.    2.    2.    2.    2.    2.    2.    2.    2.    2.
 2.    2.    2.    2.    2.    2.    2.    2.    2.    2.    2.    2.
 2.    2.    2.    2.    2.    2.    2.    2.    2.    2.    2.    2.
 2.    2.    2.    2.    2.    2.    2.    2.    2.    2.    2.    2.
 2.    2.    2.    2.    2.    2.    2.    2.    0.828 0.828 0.128 0.128
 0.089]
HOMO: -0.5253188546654759 LUMO: -0.5253188285671214
Ne error =  -7.361222742474638e-12
-0.5270548276862795
[2.    2.    2.    2.    2.    2.    2.    2.    2.    2.    2.    2.
 2.    2.    2.    2.    2.    2.    2.    2.    2.    2.    2.    2.
 2.    2.    2.    2.    2.    2.    2.    2.    2.    2.    2.    2.
 2.    2.    2.    2.    2.    2.    2.    2.    2.    2.    2.    2.
 2.    2.    2.    2.    2.    2.    2.    2.    0.828 0.828 0.128 0.128
 0.089]
HOMO: -0.5253188546625458 LUMO: -0.5253188285648319
Ne error =  -7.389644451905042e-12
-0.5270548276842936
[2.    2.    2.    2.    2.    2.    2.    2.    2.    2.    2.    2.
 2.    2.    2.    2.    2.    2.    2.    2.    2.    2.    2.    2.
 2.    2.    2.    2.    2.    2.    2.    2.    2.    2.    2.    2.
 2.    2.    2.    2.    2.    2.    2.    2.    2.    2.    2.    2.
 2.    2.    2.    2.    2.    2.    2.    2.    0.828 0.828 0.128 0.128
 0.089]
converged SCF energy = -11901.6376044479
2-norm (grad),       max(grad):
71578.51559409985 ,  13396.006865650512
W =  25505.356672093523
|umat| =  0.7931545292800948
HOMO: -0.3150943542778709 LUMO: 0.06160878527888649
Ne error =  4.717293222711305e-11
-0.06509435427787091
[2. 2. 2. 2. 2. 2. 2. 2. 2. 2. 2. 2. 2. 2. 2. 2. 2. 2. 2. 2. 2.]
HOMO: -0.31509435427787214 LUMO: 0.06160878527889009
Ne error =  4.717293222711305e-11
-0.06509435427787214
[2. 2. 2. 2. 2. 2. 2. 2. 2. 2. 2. 2. 2. 2. 2. 2. 2. 2. 2. 2. 2.]
HOMO: -0.3150943542778635 LUMO: 0.061608785278896835
Ne error =  4.717293222711305e-11
-0.06509435427786348
[2. 2. 2. 2. 2. 2. 2. 2. 2. 2. 2. 2. 2. 2. 2. 2. 2. 2. 2. 2. 2.]
converged SCF energy = -7.6850761600499
HOMO: -0.2079421562994542 LUMO: -0.030661435368869817
-0.11930198766178604
[2. 2. 2. 2. 2. 2. 2. 2. 2. 2. 2. 2. 2. 2. 2. 2. 2. 2. 2. 2. 2. 2. 2. 2.
 2. 2. 2. 2. 2. 2. 2. 2. 2. 2. 2. 2. 2. 2. 2. 2. 2. 2. 2. 2. 2. 2. 2. 2.
 2. 2. 2. 2. 2. 2. 2. 2. 2.]
HOMO: -0.20794215629945223 LUMO: -0.03066143536887161
-0.11930198766178407
[2. 2. 2. 2. 2. 2. 2. 2. 2. 2. 2. 2. 2. 2. 2. 2. 2. 2. 2. 2. 2. 2. 2. 2.
 2. 2. 2. 2. 2. 2. 2. 2. 2. 2. 2. 2. 2. 2. 2. 2. 2. 2. 2. 2. 2. 2. 2. 2.
 2. 2. 2. 2. 2. 2. 2. 2. 2.]
HOMO: -0.20794215629945156 LUMO: -0.030661435368868898
-0.1193019876617834
[2. 2. 2. 2. 2. 2. 2. 2. 2. 2. 2. 2. 2. 2. 2. 2. 2. 2. 2. 2. 2. 2. 2. 2.
 2. 2. 2. 2. 2. 2. 2. 2. 2. 2. 2. 2. 2. 2. 2. 2. 2. 2. 2. 2. 2. 2. 2. 2.
 2. 2. 2. 2. 2. 2. 2. 2. 2.]
converged SCF energy = 537.05865763612
2-norm (grad),       max(grad):
5.705742892661854 ,  0.4184065229405075
W =  616.3503596011323
|umat| =  0.7952456431836479
HOMO: -0.3148899996830653 LUMO: 0.06112529259037694
Ne error =  5.2736481848114636e-11
-0.0648899996830653
[2. 2. 2. 2. 2. 2. 2. 2. 2. 2. 2. 2. 2. 2. 2. 2. 2. 2. 2. 2. 2.]
HOMO: -0.31488999968305914 LUMO: 0.06112529259038835
Ne error =  5.2736481848114636e-11
-0.06488999968305915
[2. 2. 2. 2. 2. 2. 2. 2. 2. 2. 2. 2. 2. 2. 2. 2. 2. 2. 2. 2. 2.]
HOMO: -0.3148899996830537 LUMO: 0.06112529259038107
Ne error =  5.2736481848114636e-11
-0.06488999968305369
[2. 2. 2. 2. 2. 2. 2. 2. 2. 2. 2. 2. 2. 2. 2. 2. 2. 2. 2. 2. 2.]
converged SCF energy = -7.62795060171243
HOMO: -0.20757114490842865 LUMO: -0.030970246503989166
-0.11927072464715119
[2. 2. 2. 2. 2. 2. 2. 2. 2. 2. 2. 2. 2. 2. 2. 2. 2. 2. 2. 2. 2. 2. 2. 2.
 2. 2. 2. 2. 2. 2. 2. 2. 2. 2. 2. 2. 2. 2. 2. 2. 2. 2. 2. 2. 2. 2. 2. 2.
 2. 2. 2. 2. 2. 2. 2. 2. 2.]
HOMO: -0.20757114490842654 LUMO: -0.030970246503989312
-0.11927072464714908
[2. 2. 2. 2. 2. 2. 2. 2. 2. 2. 2. 2. 2. 2. 2. 2. 2. 2. 2. 2. 2. 2. 2. 2.
 2. 2. 2. 2. 2. 2. 2. 2. 2. 2. 2. 2. 2. 2. 2. 2. 2. 2. 2. 2. 2. 2. 2. 2.
 2. 2. 2. 2. 2. 2. 2. 2. 2.]
HOMO: -0.20757114490842693 LUMO: -0.030970246503987477
-0.11927072464714947
[2. 2. 2. 2. 2. 2. 2. 2. 2. 2. 2. 2. 2. 2. 2. 2. 2. 2. 2. 2. 2. 2. 2. 2.
 2. 2. 2. 2. 2. 2. 2. 2. 2. 2. 2. 2. 2. 2. 2. 2. 2. 2. 2. 2. 2. 2. 2. 2.
 2. 2. 2. 2. 2. 2. 2. 2. 2.]
converged SCF energy = 537.134349363517
2-norm (grad),       max(grad):
4.330143567250972 ,  0.33826709586363984
W =  616.2177755364729
|umat| =  0.8149708721890976
HOMO: -0.3136789315857505 LUMO: -0.05840768905799272
Ne error =  -4.587263902067207e-11
-0.1886789315857505
[2. 2. 2. 2. 2. 2. 2. 2. 2. 2. 2. 2. 2. 2. 2. 2. 2. 2. 2. 2. 2.]
HOMO: -0.3136789315857414 LUMO: -0.058407689054637425
Ne error =  -4.587263902067207e-11
-0.1886789315857414
[2. 2. 2. 2. 2. 2. 2. 2. 2. 2. 2. 2. 2. 2. 2. 2. 2. 2. 2. 2. 2.]
HOMO: -0.31367893158572774 LUMO: -0.05840768905675166
Ne error =  -4.587263902067207e-11
-0.18867893158572774
[2. 2. 2. 2. 2. 2. 2. 2. 2. 2. 2. 2. 2. 2. 2. 2. 2. 2. 2. 2. 2.]
converged SCF energy = -7.46753268774751
HOMO: -0.2053017480220687 LUMO: -0.032900018289871075
-0.11910090454695657
[2. 2. 2. 2. 2. 2. 2. 2. 2. 2. 2. 2. 2. 2. 2. 2. 2. 2. 2. 2. 2. 2. 2. 2.
 2. 2. 2. 2. 2. 2. 2. 2. 2. 2. 2. 2. 2. 2. 2. 2. 2. 2. 2. 2. 2. 2. 2. 2.
 2. 2. 2. 2. 2. 2. 2. 2. 2.]
HOMO: -0.20530174802206727 LUMO: -0.03290001828987235
-0.11910090454695516
[2. 2. 2. 2. 2. 2. 2. 2. 2. 2. 2. 2. 2. 2. 2. 2. 2. 2. 2. 2. 2. 2. 2. 2.
 2. 2. 2. 2. 2. 2. 2. 2. 2. 2. 2. 2. 2. 2. 2. 2. 2. 2. 2. 2. 2. 2. 2. 2.
 2. 2. 2. 2. 2. 2. 2. 2. 2.]
HOMO: -0.2053017480220681 LUMO: -0.03290001828987417
-0.11910090454695599
[2. 2. 2. 2. 2. 2. 2. 2. 2. 2. 2. 2. 2. 2. 2. 2. 2. 2. 2. 2. 2. 2. 2. 2.
 2. 2. 2. 2. 2. 2. 2. 2. 2. 2. 2. 2. 2. 2. 2. 2. 2. 2. 2. 2. 2. 2. 2. 2.
 2. 2. 2. 2. 2. 2. 2. 2. 2.]
converged SCF energy = 537.152168553463
2-norm (grad),       max(grad):
252.67165659452618 ,  17.07134664529366
W =  615.9984333539743
|umat| =  0.8037935245315647
HOMO: -0.3142823488798143 LUMO: 0.05962578756340959
Ne error =  7.646150379514438e-11
-0.06428234887981432
[2. 2. 2. 2. 2. 2. 2. 2. 2. 2. 2. 2. 2. 2. 2. 2. 2. 2. 2. 2. 2.]
HOMO: -0.3142823488798174 LUMO: 0.059625787563405405
Ne error =  7.646150379514438e-11
-0.06428234887981739
[2. 2. 2. 2. 2. 2. 2. 2. 2. 2. 2. 2. 2. 2. 2. 2. 2. 2. 2. 2. 2.]
HOMO: -0.3142823488798081 LUMO: 0.059625787563406314
Ne error =  7.646150379514438e-11
-0.0642823488798081
[2. 2. 2. 2. 2. 2. 2. 2. 2. 2. 2. 2. 2. 2. 2. 2. 2. 2. 2. 2. 2.]
converged SCF energy = -7.53484074365645
HOMO: -0.20644436644972447 LUMO: -0.03192174687365578
-0.1191830632026721
[2. 2. 2. 2. 2. 2. 2. 2. 2. 2. 2. 2. 2. 2. 2. 2. 2. 2. 2. 2. 2. 2. 2. 2.
 2. 2. 2. 2. 2. 2. 2. 2. 2. 2. 2. 2. 2. 2. 2. 2. 2. 2. 2. 2. 2. 2. 2. 2.
 2. 2. 2. 2. 2. 2. 2. 2. 2.]
HOMO: -0.20644436644972214 LUMO: -0.03192174687365622
-0.11918306320266976
[2. 2. 2. 2. 2. 2. 2. 2. 2. 2. 2. 2. 2. 2. 2. 2. 2. 2. 2. 2. 2. 2. 2. 2.
 2. 2. 2. 2. 2. 2. 2. 2. 2. 2. 2. 2. 2. 2. 2. 2. 2. 2. 2. 2. 2. 2. 2. 2.
 2. 2. 2. 2. 2. 2. 2. 2. 2.]
HOMO: -0.2064443664497221 LUMO: -0.031921746873655794
-0.11918306320266973
[2. 2. 2. 2. 2. 2. 2. 2. 2. 2. 2. 2. 2. 2. 2. 2. 2. 2. 2. 2. 2. 2. 2. 2.
 2. 2. 2. 2. 2. 2. 2. 2. 2. 2. 2. 2. 2. 2. 2. 2. 2. 2. 2. 2. 2. 2. 2. 2.
 2. 2. 2. 2. 2. 2. 2. 2. 2.]
converged SCF energy = 537.231388958339
2-norm (grad),       max(grad):
4.78432545829386 ,  0.3386476308845021
W =  616.00733018739
|umat| =  0.861282047978776
HOMO: -0.3119410357559669 LUMO: 0.05320946857230307
Ne error =  -5.555023108172463e-11
-0.18694103575596688
[2. 2. 2. 2. 2. 2. 2. 2. 2. 2. 2. 2. 2. 2. 2. 2. 2. 2. 2. 2. 2.]
HOMO: -0.31194103575594984 LUMO: 0.053209468572312894
Ne error =  -5.555023108172463e-11
-0.18694103575594984
[2. 2. 2. 2. 2. 2. 2. 2. 2. 2. 2. 2. 2. 2. 2. 2. 2. 2. 2. 2. 2.]
HOMO: -0.3119410357559582 LUMO: 0.05320946857230079
Ne error =  -5.555023108172463e-11
-0.18694103575595822
[2. 2. 2. 2. 2. 2. 2. 2. 2. 2. 2. 2. 2. 2. 2. 2. 2. 2. 2. 2. 2.]
converged SCF energy = -7.37087366392529
HOMO: -0.20184164110819014 LUMO: -0.0359607391021511
-0.11890119228988201
[2. 2. 2. 2. 2. 2. 2. 2. 2. 2. 2. 2. 2. 2. 2. 2. 2. 2. 2. 2. 2. 2. 2. 2.
 2. 2. 2. 2. 2. 2. 2. 2. 2. 2. 2. 2. 2. 2. 2. 2. 2. 2. 2. 2. 2. 2. 2. 2.
 2. 2. 2. 2. 2. 2. 2. 2. 2.]
HOMO: -0.20184164110818947 LUMO: -0.03596073910214944
-0.11890119228988134
[2. 2. 2. 2. 2. 2. 2. 2. 2. 2. 2. 2. 2. 2. 2. 2. 2. 2. 2. 2. 2. 2. 2. 2.
 2. 2. 2. 2. 2. 2. 2. 2. 2. 2. 2. 2. 2. 2. 2. 2. 2. 2. 2. 2. 2. 2. 2. 2.
 2. 2. 2. 2. 2. 2. 2. 2. 2.]
HOMO: -0.20184164110819175 LUMO: -0.03596073910215268
-0.11890119228988362
[2. 2. 2. 2. 2. 2. 2. 2. 2. 2. 2. 2. 2. 2. 2. 2. 2. 2. 2. 2. 2. 2. 2. 2.
 2. 2. 2. 2. 2. 2. 2. 2. 2. 2. 2. 2. 2. 2. 2. 2. 2. 2. 2. 2. 2. 2. 2. 2.
 2. 2. 2. 2. 2. 2. 2. 2. 2.]
converged SCF energy = 537.339527623335
2-norm (grad),       max(grad):
3.7018207468552218 ,  0.33793985687523187
W =  615.6454570709041
|umat| =  0.9278552703418255
HOMO: -0.31010546524336147 LUMO: 0.046961575831753304
Ne error =  -5.555023108172463e-11
-0.18510546524336147
[2. 2. 2. 2. 2. 2. 2. 2. 2. 2. 2. 2. 2. 2. 2. 2. 2. 2. 2. 2. 2.]
HOMO: -0.31010546524334454 LUMO: 0.046961575831749126
Ne error =  -5.555023108172463e-11
-0.18510546524334454
[2. 2. 2. 2. 2. 2. 2. 2. 2. 2. 2. 2. 2. 2. 2. 2. 2. 2. 2. 2. 2.]
HOMO: -0.3101054652433412 LUMO: 0.04696157583175096
Ne error =  -5.555023108172463e-11
-0.1851054652433412
[2. 2. 2. 2. 2. 2. 2. 2. 2. 2. 2. 2. 2. 2. 2. 2. 2. 2. 2. 2. 2.]
converged SCF energy = -7.27968894652997
HOMO: -0.19780787059039237 LUMO: -0.03977930177272681
-0.11879358848760281
[2. 2. 2. 2. 2. 2. 2. 2. 2. 2. 2. 2. 2. 2. 2. 2. 2. 2. 2. 2. 2. 2. 2. 2.
 2. 2. 2. 2. 2. 2. 2. 2. 2. 2. 2. 2. 2. 2. 2. 2. 2. 2. 2. 2. 2. 2. 2. 2.
 2. 2. 2. 2. 2. 2. 2. 2. 2.]
HOMO: -0.1978078705903922 LUMO: -0.039779301772727524
-0.11879358848760264
[2. 2. 2. 2. 2. 2. 2. 2. 2. 2. 2. 2. 2. 2. 2. 2. 2. 2. 2. 2. 2. 2. 2. 2.
 2. 2. 2. 2. 2. 2. 2. 2. 2. 2. 2. 2. 2. 2. 2. 2. 2. 2. 2. 2. 2. 2. 2. 2.
 2. 2. 2. 2. 2. 2. 2. 2. 2.]
HOMO: -0.19780787059039268 LUMO: -0.039779301772726275
-0.11879358848760312
[2. 2. 2. 2. 2. 2. 2. 2. 2. 2. 2. 2. 2. 2. 2. 2. 2. 2. 2. 2. 2. 2. 2. 2.
 2. 2. 2. 2. 2. 2. 2. 2. 2. 2. 2. 2. 2. 2. 2. 2. 2. 2. 2. 2. 2. 2. 2. 2.
 2. 2. 2. 2. 2. 2. 2. 2. 2.]
converged SCF energy = 537.403566663837
2-norm (grad),       max(grad):
2.4938490811208895 ,  0.3343580240151925
W =  615.4031052358733
|umat| =  1.0746522292310638
HOMO: -0.3070475910035686 LUMO: 0.03396066696412754
Ne error =  -5.555023108172463e-11
-0.1820475910035686
[2. 2. 2. 2. 2. 2. 2. 2. 2. 2. 2. 2. 2. 2. 2. 2. 2. 2. 2. 2. 2.]
HOMO: -0.3070475910035452 LUMO: 0.03396066696412862
Ne error =  -5.555023108172463e-11
-0.18204759100354517
[2. 2. 2. 2. 2. 2. 2. 2. 2. 2. 2. 2. 2. 2. 2. 2. 2. 2. 2. 2. 2.]
HOMO: -0.30704759100355583 LUMO: 0.033960666964121894
Ne error =  -5.555023108172463e-11
-0.18204759100355583
[2. 2. 2. 2. 2. 2. 2. 2. 2. 2. 2. 2. 2. 2. 2. 2. 2. 2. 2. 2. 2.]
converged SCF energy = -7.22025557271581
HOMO: -0.19028359828025027 LUMO: -0.047542006167680194
-0.11891281315599185
[2. 2. 2. 2. 2. 2. 2. 2. 2. 2. 2. 2. 2. 2. 2. 2. 2. 2. 2. 2. 2. 2. 2. 2.
 2. 2. 2. 2. 2. 2. 2. 2. 2. 2. 2. 2. 2. 2. 2. 2. 2. 2. 2. 2. 2. 2. 2. 2.
 2. 2. 2. 2. 2. 2. 2. 2. 2.]
HOMO: -0.1902835982802478 LUMO: -0.047542006167674344
-0.11891281315598938
[2. 2. 2. 2. 2. 2. 2. 2. 2. 2. 2. 2. 2. 2. 2. 2. 2. 2. 2. 2. 2. 2. 2. 2.
 2. 2. 2. 2. 2. 2. 2. 2. 2. 2. 2. 2. 2. 2. 2. 2. 2. 2. 2. 2. 2. 2. 2. 2.
 2. 2. 2. 2. 2. 2. 2. 2. 2.]
HOMO: -0.1902835982802504 LUMO: -0.04754200616767711
-0.11891281315599199
[2. 2. 2. 2. 2. 2. 2. 2. 2. 2. 2. 2. 2. 2. 2. 2. 2. 2. 2. 2. 2. 2. 2. 2.
 2. 2. 2. 2. 2. 2. 2. 2. 2. 2. 2. 2. 2. 2. 2. 2. 2. 2. 2. 2. 2. 2. 2. 2.
 2. 2. 2. 2. 2. 2. 2. 2. 2.]
converged SCF energy = 537.444186515393
2-norm (grad),       max(grad):
2.396781341452487 ,  0.327985531860938
W =  615.0548044475514
|umat| =  2.0179575556250744
HOMO: -0.29767050510029514 LUMO: -0.04732438021099256
Ne error =  -3.716138508025324e-12
-0.17267050510029514
[2. 2. 2. 2. 2. 2. 2. 2. 2. 2. 2. 2. 2. 2. 2. 2. 2. 2. 2. 2. 2.]
HOMO: -0.29767050510030274 LUMO: -0.04732438021099178
Ne error =  -3.716138508025324e-12
-0.17267050510030274
[2. 2. 2. 2. 2. 2. 2. 2. 2. 2. 2. 2. 2. 2. 2. 2. 2. 2. 2. 2. 2.]
HOMO: -0.2976705051002975 LUMO: -0.04732438021099337
Ne error =  -3.716138508025324e-12
-0.17267050510029752
[2. 2. 2. 2. 2. 2. 2. 2. 2. 2. 2. 2. 2. 2. 2. 2. 2. 2. 2. 2. 2.]
converged SCF energy = -7.41122881928106
HOMO: -0.1565200129434755 LUMO: -0.15651995813550185
Ne error =  -3.559819106158102e-11
-0.1566576364142361
[2.    2.    2.    2.    2.    2.    2.    2.    2.    2.    2.    2.
 2.    2.    2.    2.    2.    2.    2.    2.    2.    2.    2.    2.
 2.    2.    2.    2.    2.    2.    2.    2.    2.    2.    2.    2.
 2.    2.    2.    2.    2.    2.    2.    2.    2.    2.    2.    2.
 2.    2.    2.    2.    2.    2.    2.    1.998 0.986 0.986 0.015 0.015]
HOMO: -0.15652001294346846 LUMO: -0.15651995813550362
Ne error =  -3.558398020686582e-11
-0.15665763641423314
[2.    2.    2.    2.    2.    2.    2.    2.    2.    2.    2.    2.
 2.    2.    2.    2.    2.    2.    2.    2.    2.    2.    2.    2.
 2.    2.    2.    2.    2.    2.    2.    2.    2.    2.    2.    2.
 2.    2.    2.    2.    2.    2.    2.    2.    2.    2.    2.    2.
 2.    2.    2.    2.    2.    2.    2.    1.998 0.986 0.986 0.015 0.015]
HOMO: -0.15652001294347334 LUMO: -0.1565199581355013
Ne error =  -3.558398020686582e-11
-0.15665763641423538
[2.    2.    2.    2.    2.    2.    2.    2.    2.    2.    2.    2.
 2.    2.    2.    2.    2.    2.    2.    2.    2.    2.    2.    2.
 2.    2.    2.    2.    2.    2.    2.    2.    2.    2.    2.    2.
 2.    2.    2.    2.    2.    2.    2.    2.    2.    2.    2.    2.
 2.    2.    2.    2.    2.    2.    2.    1.998 0.986 0.986 0.015 0.015]
converged SCF energy = 537.364745876944
2-norm (grad),       max(grad):
6.041182108244285 ,  0.48920658752993845
W =  613.9601405832694
|umat| =  3.1720552579026697
HOMO: -0.29851897920616727 LUMO: -0.15850591114562035
-0.22851242794864193
[2. 2. 2. 2. 2. 2. 2. 2. 2. 2. 2. 2. 2. 2. 2. 2. 2. 2. 2. 2. 2.]
HOMO: -0.2985189792061087 LUMO: -0.15850591114562385
-0.22851242794858337
[2. 2. 2. 2. 2. 2. 2. 2. 2. 2. 2. 2. 2. 2. 2. 2. 2. 2. 2. 2. 2.]
HOMO: -0.2985189792061347 LUMO: -0.1585059111456372
-0.22851242794860935
[2. 2. 2. 2. 2. 2. 2. 2. 2. 2. 2. 2. 2. 2. 2. 2. 2. 2. 2. 2. 2.]
converged SCF energy = -8.05724659855946
HOMO: -0.3239403928040873 LUMO: -0.2143758319517098
-0.2708990549393067
[2. 2. 2. 2. 2. 2. 2. 2. 2. 2. 2. 2. 2. 2. 2. 2. 2. 2. 2. 2. 2. 2. 2. 2.
 2. 2. 2. 2. 2. 2. 2. 2. 2. 2. 2. 2. 2. 2. 2. 2. 2. 2. 2. 2. 2. 2. 2. 2.
 2. 2. 2. 2. 2. 2. 2. 2. 2.]
HOMO: -0.3239403928040843 LUMO: -0.2143758319516099
-0.2708990549393037
[2. 2. 2. 2. 2. 2. 2. 2. 2. 2. 2. 2. 2. 2. 2. 2. 2. 2. 2. 2. 2. 2. 2. 2.
 2. 2. 2. 2. 2. 2. 2. 2. 2. 2. 2. 2. 2. 2. 2. 2. 2. 2. 2. 2. 2. 2. 2. 2.
 2. 2. 2. 2. 2. 2. 2. 2. 2.]
HOMO: -0.3239403928040865 LUMO: -0.214375831951679
-0.2708990549393059
[2. 2. 2. 2. 2. 2. 2. 2. 2. 2. 2. 2. 2. 2. 2. 2. 2. 2. 2. 2. 2. 2. 2. 2.
 2. 2. 2. 2. 2. 2. 2. 2. 2. 2. 2. 2. 2. 2. 2. 2. 2. 2. 2. 2. 2. 2. 2. 2.
 2. 2. 2. 2. 2. 2. 2. 2. 2.]
converged SCF energy = 536.255947476157
2-norm (grad),       max(grad):
8.896660413331478 ,  0.8068366573788766
W =  614.0986587225035
|umat| =  2.359020327100488
HOMO: -0.29652816166547974 LUMO: -0.07940000938041392
Ne error =  -9.85451720225683e-11
-0.18812972416547974
[2. 2. 2. 2. 2. 2. 2. 2. 2. 2. 2. 2. 2. 2. 2. 2. 2. 2. 2. 2. 2.]
HOMO: -0.29652816166548257 LUMO: -0.0794000093804171
Ne error =  -9.85451720225683e-11
-0.18812972416548257
[2. 2. 2. 2. 2. 2. 2. 2. 2. 2. 2. 2. 2. 2. 2. 2. 2. 2. 2. 2. 2.]
HOMO: -0.29652816166545287 LUMO: -0.07940000938041908
Ne error =  -9.85451720225683e-11
-0.18812972416545287
[2. 2. 2. 2. 2. 2. 2. 2. 2. 2. 2. 2. 2. 2. 2. 2. 2. 2. 2. 2. 2.]
converged SCF energy = -7.53315856124823
HOMO: -0.1999740158175961 LUMO: -0.15659980504451274
-0.17772386385127495
[2.    2.    2.    2.    2.    2.    2.    2.    2.    2.    2.    2.
 2.    2.    2.    2.    2.    2.    2.    2.    2.    2.    2.    2.
 2.    2.    2.    2.    2.    2.    2.    2.    2.    2.    2.    2.
 2.    2.    2.    2.    2.    2.    2.    2.    2.    2.    2.    2.
 2.    2.    2.    2.    2.    2.    2.    1.977 1.977 0.029 0.009 0.009]
HOMO: -0.199974015817544 LUMO: -0.1565998050445205
-0.17772386385127117
[2.    2.    2.    2.    2.    2.    2.    2.    2.    2.    2.    2.
 2.    2.    2.    2.    2.    2.    2.    2.    2.    2.    2.    2.
[...]
Ne error =  -3.936406756110955e-12
-0.45524066312386036
[2. 2. 2. 2. 2. 2. 2. 2. 2. 2. 2. 2. 2. 2. 2. 2. 2. 2. 2. 2. 2.]
HOMO: -0.5057380893383002 LUMO: -0.40203407156577764
Ne error =  -3.936406756110955e-12
-0.45524066312378864
[2. 2. 2. 2. 2. 2. 2. 2. 2. 2. 2. 2. 2. 2. 2. 2. 2. 2. 2. 2. 2.]
converged SCF energy = -6.09664116223757
HOMO: -0.5878029295195326 LUMO: -0.40556614571501326
-0.49476628036710557
[2. 2. 2. 2. 2. 2. 2. 2. 2. 2. 2. 2. 2. 2. 2. 2. 2. 2. 2. 2. 2. 2. 2. 2.
 2. 2. 2. 2. 2. 2. 2. 2. 2. 2. 2. 2. 2. 2. 2. 2. 2. 2. 2. 2. 2. 2. 2. 2.
 2. 2. 2. 2. 2. 2. 2. 2. 2.]
HOMO: -0.5878029295195203 LUMO: -0.4055661457150565
-0.49476628036709325
[2. 2. 2. 2. 2. 2. 2. 2. 2. 2. 2. 2. 2. 2. 2. 2. 2. 2. 2. 2. 2. 2. 2. 2.
 2. 2. 2. 2. 2. 2. 2. 2. 2. 2. 2. 2. 2. 2. 2. 2. 2. 2. 2. 2. 2. 2. 2. 2.
 2. 2. 2. 2. 2. 2. 2. 2. 2.]
HOMO: -0.58780292951952 LUMO: -0.4055661457152998
-0.4947662803670929
[2. 2. 2. 2. 2. 2. 2. 2. 2. 2. 2. 2. 2. 2. 2. 2. 2. 2. 2. 2. 2. 2. 2. 2.
 2. 2. 2. 2. 2. 2. 2. 2. 2. 2. 2. 2. 2. 2. 2. 2. 2. 2. 2. 2. 2. 2. 2. 2.
 2. 2. 2. 2. 2. 2. 2. 2. 2.]
converged SCF energy = 527.517273732264
diffP_max_imp, diffP_max_bath 
1.5346026599212265e-05 1.9477781808066585e-05
HOMO: -1.7243316865292233 LUMO: -1.7156520755784956
Ne error =  8.65441052155802e-12
-1.7180658965003512
[2.    2.    2.    2.    2.    2.    2.    2.    2.    2.    2.    2.
 1.999 1.998 1.994 1.994 1.991 1.704 1.704 1.556 1.556 0.763 0.742]
HOMO: -0.45049789715324445 LUMO: -0.43881358509370055
-0.442552913601893
[2.    2.    2.    2.    2.    2.    2.    2.    2.    2.    2.    2.
 2.    1.999 1.999 1.999 1.999 1.758 1.697 1.665 1.661 0.643 0.58 ]
HOMO: -0.4866276215657216 LUMO: -0.45342549860014264
Ne error =  -6.16751094639767e-12
-0.4709328011342905
[2.    2.    2.    2.    2.    2.    2.    2.    2.    2.    2.    2.
 2.    2.    2.    2.    2.    2.    2.    2.    1.917 0.059 0.025]
HOMO: -0.4700992321585123 LUMO: -0.3928500758554534
Ne error =  5.063327535026474e-11
-0.4323279427635728
[2.    2.    2.    2.    2.    2.    2.    2.    2.    2.    2.    2.
 2.    2.    2.    2.    2.    2.    2.    2.    1.999]
HOMO: -0.4749378116398916 LUMO: -0.36713325072452085
Ne error =  2.7853275241795927e-12
-0.42221222276555814
[2. 2. 2. 2. 2. 2. 2. 2. 2. 2. 2. 2. 2. 2. 2. 2. 2. 2. 2. 2. 2.]
HOMO: -0.47330849792823376 LUMO: -0.36678966922748135
Ne error =  2.2453150450019166e-12
-0.42249029621751055
[2. 2. 2. 2. 2. 2. 2. 2. 2. 2. 2. 2. 2. 2. 2. 2. 2. 2. 2. 2. 2.]
HOMO: -0.4732781024073809 LUMO: -0.3672051705261551
Ne error =  -1.8189894035458565e-12
-0.4226538102923329
[2. 2. 2. 2. 2. 2. 2. 2. 2. 2. 2. 2. 2. 2. 2. 2. 2. 2. 2. 2. 2.]
HOMO: -0.4737176605070459 LUMO: -0.36694759643991903
Ne error =  3.367972567502875e-12
-0.42275983635125464
[2. 2. 2. 2. 2. 2. 2. 2. 2. 2. 2. 2. 2. 2. 2. 2. 2. 2. 2. 2. 2.]
HOMO: -0.4740163689782104 LUMO: -0.3661638833493057
-0.4227157615273237
[2. 2. 2. 2. 2. 2. 2. 2. 2. 2. 2. 2. 2. 2. 2. 2. 2. 2. 2. 2. 2.]
HOMO: -0.47387173967293644 LUMO: -0.36615346855087066
Ne error =  -3.311129148642067e-12
-0.4226430640978655
[2. 2. 2. 2. 2. 2. 2. 2. 2. 2. 2. 2. 2. 2. 2. 2. 2. 2. 2. 2. 2.]
HOMO: -0.47386799758020565 LUMO: -0.3661739573154199
Ne error =  -4.206412995699793e-12
-0.4226472009602195
[2. 2. 2. 2. 2. 2. 2. 2. 2. 2. 2. 2. 2. 2. 2. 2. 2. 2. 2. 2. 2.]
HOMO: -0.4738851507350207 LUMO: -0.36616149854344504
Ne error =  -2.2737367544323206e-12
-0.42265261750181665
[2. 2. 2. 2. 2. 2. 2. 2. 2. 2. 2. 2. 2. 2. 2. 2. 2. 2. 2. 2. 2.]
HOMO: -0.47389548916277324 LUMO: -0.3661704121976922
Ne error =  -1.9468870959826745e-12
-0.4226619462004409
[2. 2. 2. 2. 2. 2. 2. 2. 2. 2. 2. 2. 2. 2. 2. 2. 2. 2. 2. 2. 2.]
HOMO: -0.4738871087091911 LUMO: -0.36616107428378536
Ne error =  -2.1458390619955026e-12
-0.42265415969669173
[2. 2. 2. 2. 2. 2. 2. 2. 2. 2. 2. 2. 2. 2. 2. 2. 2. 2. 2. 2. 2.]
HOMO: -0.4738870442041341 LUMO: -0.3661604858809913
Ne error =  -2.1316282072803006e-12
-0.4226540357446832
[2. 2. 2. 2. 2. 2. 2. 2. 2. 2. 2. 2. 2. 2. 2. 2. 2. 2. 2. 2. 2.]
HOMO: -0.47389133965787206 LUMO: -0.36616177068159883
Ne error =  -1.8474111129762605e-12
-0.422657455890305
[2. 2. 2. 2. 2. 2. 2. 2. 2. 2. 2. 2. 2. 2. 2. 2. 2. 2. 2. 2. 2.]
HOMO: -0.47389179932620357 LUMO: -0.36616487860878183
Ne error =  -1.7621459846850485e-12
-0.42265765788656817
[2. 2. 2. 2. 2. 2. 2. 2. 2. 2. 2. 2. 2. 2. 2. 2. 2. 2. 2. 2. 2.]
HOMO: -0.4738857586606534 LUMO: -0.36616192954427595
Ne error =  -1.8971491044794675e-12
-0.4226520242625163
[2. 2. 2. 2. 2. 2. 2. 2. 2. 2. 2. 2. 2. 2. 2. 2. 2. 2. 2. 2. 2.]
HOMO: -0.47388176136189614 LUMO: -0.36615965624369895
Ne error =  -2.5295321393059567e-12
-0.42265011591801016
[2. 2. 2. 2. 2. 2. 2. 2. 2. 2. 2. 2. 2. 2. 2. 2. 2. 2. 2. 2. 2.]
HOMO: -0.4738824399053996 LUMO: -0.366164502294448
Ne error =  -2.8705926524708048e-12
-0.4226519957224073
[2. 2. 2. 2. 2. 2. 2. 2. 2. 2. 2. 2. 2. 2. 2. 2. 2. 2. 2. 2. 2.]
HOMO: -0.4738790335922961 LUMO: -0.3661545886829455
Ne error =  -2.8705926524708048e-12
-0.4226486135526238
[2. 2. 2. 2. 2. 2. 2. 2. 2. 2. 2. 2. 2. 2. 2. 2. 2. 2. 2. 2. 2.]
HOMO: -0.4738801381763114 LUMO: -0.36615478654943334
Ne error =  -2.7924329515371937e-12
-0.42264942474287354
[2. 2. 2. 2. 2. 2. 2. 2. 2. 2. 2. 2. 2. 2. 2. 2. 2. 2. 2. 2. 2.]
HOMO: -0.47387998903807127 LUMO: -0.36615474030779704
Ne error =  -2.8208546609675977e-12
-0.4226493526699885
[2. 2. 2. 2. 2. 2. 2. 2. 2. 2. 2. 2. 2. 2. 2. 2. 2. 2. 2. 2. 2.]
HOMO: -0.47388000727095964 LUMO: -0.3661540788747939
Ne error =  -2.7995383788947947e-12
-0.422649295166739
[2. 2. 2. 2. 2. 2. 2. 2. 2. 2. 2. 2. 2. 2. 2. 2. 2. 2. 2. 2. 2.]
HOMO: -0.47388060767509504 LUMO: -0.3661543743360902
Ne error =  -2.7711166694643907e-12
-0.42264979549017745
[2. 2. 2. 2. 2. 2. 2. 2. 2. 2. 2. 2. 2. 2. 2. 2. 2. 2. 2. 2. 2.]
HOMO: -0.47388236679317675 LUMO: -0.3661592333348951
Ne error =  -2.6574298317427747e-12
-0.42265113699062307
[2. 2. 2. 2. 2. 2. 2. 2. 2. 2. 2. 2. 2. 2. 2. 2. 2. 2. 2. 2. 2.]
HOMO: -0.4738828088826079 LUMO: -0.36615776944516865
Ne error =  -2.5650592760939617e-12
-0.4226512756327647
[2. 2. 2. 2. 2. 2. 2. 2. 2. 2. 2. 2. 2. 2. 2. 2. 2. 2. 2. 2. 2.]
HOMO: -0.4738827826105087 LUMO: -0.3661559796308386
Ne error =  -2.5437429940211587e-12
-0.42265117882291303
[2. 2. 2. 2. 2. 2. 2. 2. 2. 2. 2. 2. 2. 2. 2. 2. 2. 2. 2. 2. 2.]
HOMO: -0.4738812900853024 LUMO: -0.3661529932144932
Ne error =  -2.6147972675971687e-12
-0.422649953705861
[2. 2. 2. 2. 2. 2. 2. 2. 2. 2. 2. 2. 2. 2. 2. 2. 2. 2. 2. 2. 2.]
HOMO: -0.47388153505769154 LUMO: -0.3661536110999052
Ne error =  -2.5792701308091637e-12
-0.4226500526352679
[2. 2. 2. 2. 2. 2. 2. 2. 2. 2. 2. 2. 2. 2. 2. 2. 2. 2. 2. 2. 2.]
HOMO: -0.4738837797452135 LUMO: -0.36615472036784774
Ne error =  -2.4442670110147446e-12
-0.42265182877200325
[2. 2. 2. 2. 2. 2. 2. 2. 2. 2. 2. 2. 2. 2. 2. 2. 2. 2. 2. 2. 2.]
HOMO: -0.47388315146581683 LUMO: -0.36614933264332306
Ne error =  -2.4300561562995426e-12
-0.4226511517984058
[2. 2. 2. 2. 2. 2. 2. 2. 2. 2. 2. 2. 2. 2. 2. 2. 2. 2. 2. 2. 2.]
HOMO: -0.47388222125667573 LUMO: -0.3661491084820962
Ne error =  -2.5011104298755527e-12
-0.4226504486479092
[2. 2. 2. 2. 2. 2. 2. 2. 2. 2. 2. 2. 2. 2. 2. 2. 2. 2. 2. 2. 2.]
HOMO: -0.47388206336954336 LUMO: -0.3661478881365056
Ne error =  -2.4868995751603507e-12
-0.42265023995617357
[2. 2. 2. 2. 2. 2. 2. 2. 2. 2. 2. 2. 2. 2. 2. 2. 2. 2. 2. 2. 2.]
HOMO: -0.4738822699192653 LUMO: -0.3661494623757969
Ne error =  -2.4584778657299466e-12
-0.42265036425220637
[2. 2. 2. 2. 2. 2. 2. 2. 2. 2. 2. 2. 2. 2. 2. 2. 2. 2. 2. 2. 2.]
HOMO: -0.4738822450475768 LUMO: -0.3661514412010838
Ne error =  -2.4726887204451486e-12
-0.4226504124939942
[2. 2. 2. 2. 2. 2. 2. 2. 2. 2. 2. 2. 2. 2. 2. 2. 2. 2. 2. 2. 2.]
HOMO: -0.47388260663255766 LUMO: -0.366153114125369
Ne error =  -2.4726887204451486e-12
-0.422650772939596
[2. 2. 2. 2. 2. 2. 2. 2. 2. 2. 2. 2. 2. 2. 2. 2. 2. 2. 2. 2. 2.]
HOMO: -0.47388266122832 LUMO: -0.3661539255862566
Ne error =  -2.5011104298755527e-12
-0.4226508914541824
[2. 2. 2. 2. 2. 2. 2. 2. 2. 2. 2. 2. 2. 2. 2. 2. 2. 2. 2. 2. 2.]
HOMO: -0.47388182921846966 LUMO: -0.3661494022316103
Ne error =  -2.4726887204451486e-12
-0.4226499538234833
[2. 2. 2. 2. 2. 2. 2. 2. 2. 2. 2. 2. 2. 2. 2. 2. 2. 2. 2. 2. 2.]
HOMO: -0.47388252816390963 LUMO: -0.36614947026032396
Ne error =  -2.4300561562995426e-12
-0.42265052445903495
[2. 2. 2. 2. 2. 2. 2. 2. 2. 2. 2. 2. 2. 2. 2. 2. 2. 2. 2. 2. 2.]
HOMO: -0.473883529957046 LUMO: -0.3661531063525068
Ne error =  -2.4158453015843406e-12
-0.4226515115905358
[2. 2. 2. 2. 2. 2. 2. 2. 2. 2. 2. 2. 2. 2. 2. 2. 2. 2. 2. 2. 2.]
HOMO: -0.4738833355445607 LUMO: -0.36615241102716456
Ne error =  -2.4300561562995426e-12
-0.4226513515287653
[2. 2. 2. 2. 2. 2. 2. 2. 2. 2. 2. 2. 2. 2. 2. 2. 2. 2. 2. 2. 2.]
HOMO: -0.4738833923711686 LUMO: -0.36615206112138743
Ne error =  -2.4158453015843406e-12
-0.42265134830211926
[2. 2. 2. 2. 2. 2. 2. 2. 2. 2. 2. 2. 2. 2. 2. 2. 2. 2. 2. 2. 2.]
HOMO: -0.4738832169533317 LUMO: -0.3661504868822594
Ne error =  -2.4300561562995426e-12
-0.42265123008373645
[2. 2. 2. 2. 2. 2. 2. 2. 2. 2. 2. 2. 2. 2. 2. 2. 2. 2. 2. 2. 2.]
HOMO: -0.47388315538562015 LUMO: -0.36615143958340335
Ne error =  -2.4655832930875476e-12
-0.422651266446629
[2. 2. 2. 2. 2. 2. 2. 2. 2. 2. 2. 2. 2. 2. 2. 2. 2. 2. 2. 2. 2.]
HOMO: -0.47388308431401616 LUMO: -0.36614992590359924
Ne error =  -2.4726887204451486e-12
-0.42265122519659093
[2. 2. 2. 2. 2. 2. 2. 2. 2. 2. 2. 2. 2. 2. 2. 2. 2. 2. 2. 2. 2.]
HOMO: -0.4738830631817326 LUMO: -0.3661483351604195
Ne error =  -2.4726887204451486e-12
-0.4226512213378991
[2. 2. 2. 2. 2. 2. 2. 2. 2. 2. 2. 2. 2. 2. 2. 2. 2. 2. 2. 2. 2.]
HOMO: -0.47388310886069374 LUMO: -0.36614985767707575
Ne error =  -2.4868995751603507e-12
-0.4226513001110685
[2. 2. 2. 2. 2. 2. 2. 2. 2. 2. 2. 2. 2. 2. 2. 2. 2. 2. 2. 2. 2.]
HOMO: -0.4738823921080538 LUMO: -0.36614918205438846
Ne error =  -2.5153212845907547e-12
-0.4226506917543104
[2. 2. 2. 2. 2. 2. 2. 2. 2. 2. 2. 2. 2. 2. 2. 2. 2. 2. 2. 2. 2.]
HOMO: -0.4738823836387851 LUMO: -0.3661486701297007
Ne error =  -2.5224267119483557e-12
-0.4226506928385617
[2. 2. 2. 2. 2. 2. 2. 2. 2. 2. 2. 2. 2. 2. 2. 2. 2. 2. 2. 2. 2.]
SCF not converged.
SCF energy = -281.058385621415
HOMO: 0.563727065178102 LUMO: 0.6299624082007449
Ne error =  4.241940132487798e-11
0.5961968184206083
[2.    2.    2.    2.    2.    2.    2.    2.    2.    2.    2.    2.
 2.    2.    2.    2.    2.    2.    2.    2.    2.    2.    2.    2.
 2.    2.    2.    2.    2.    2.    2.    2.    2.    2.    2.    2.
 2.    2.    2.    2.    2.    2.    2.    2.    2.    2.    2.    2.
 2.    2.    2.    2.    2.    2.    2.    1.997 1.997 0.002 0.002]
HOMO: -0.7404044467483261 LUMO: -0.7215402039616904
-0.7319187413525754
[2.    2.    2.    2.    2.    2.    2.    2.    2.    2.    2.    2.
 2.    2.    2.    2.    2.    2.    2.    2.    2.    2.    2.    2.
 2.    2.    2.    2.    2.    2.    2.    2.    2.    2.    2.    2.
 2.    2.    2.    2.    2.    2.    2.    2.    2.    2.    2.    2.
 1.999 1.999 1.998 1.998 1.981 1.978 1.955 1.955 1.69  0.223 0.223]
HOMO: -0.5540617680856249 LUMO: -0.47233922503301384
Ne error =  4.227729277772596e-11
-0.5122111867102782
[2. 2. 2. 2. 2. 2. 2. 2. 2. 2. 2. 2. 2. 2. 2. 2. 2. 2. 2. 2. 2. 2. 2. 2.
 2. 2. 2. 2. 2. 2. 2. 2. 2. 2. 2. 2. 2. 2. 2. 2. 2. 2. 2. 2. 2. 2. 2. 2.
 2. 2. 2. 2. 2. 2. 2. 2. 2.]
HOMO: -0.5406554862246437 LUMO: -0.4087951199476448
-0.4742024124183388
[2. 2. 2. 2. 2. 2. 2. 2. 2. 2. 2. 2. 2. 2. 2. 2. 2. 2. 2. 2. 2. 2. 2. 2.
 2. 2. 2. 2. 2. 2. 2. 2. 2. 2. 2. 2. 2. 2. 2. 2. 2. 2. 2. 2. 2. 2. 2. 2.
 2. 2. 2. 2. 2. 2. 2. 2. 2.]
HOMO: -0.592183323482833 LUMO: -0.419562669680698
-0.5040790971085085
[2. 2. 2. 2. 2. 2. 2. 2. 2. 2. 2. 2. 2. 2. 2. 2. 2. 2. 2. 2. 2. 2. 2. 2.
 2. 2. 2. 2. 2. 2. 2. 2. 2. 2. 2. 2. 2. 2. 2. 2. 2. 2. 2. 2. 2. 2. 2. 2.
 2. 2. 2. 2. 2. 2. 2. 2. 2.]
HOMO: -0.5887815241872528 LUMO: -0.4133466929490609
-0.49919977840587587
[2. 2. 2. 2. 2. 2. 2. 2. 2. 2. 2. 2. 2. 2. 2. 2. 2. 2. 2. 2. 2. 2. 2. 2.
 2. 2. 2. 2. 2. 2. 2. 2. 2. 2. 2. 2. 2. 2. 2. 2. 2. 2. 2. 2. 2. 2. 2. 2.
 2. 2. 2. 2. 2. 2. 2. 2. 2.]
HOMO: -0.5882461190016165 LUMO: -0.40847042889636104
Ne error =  -2.6503244043851737e-11
-0.4964492440016165
[2. 2. 2. 2. 2. 2. 2. 2. 2. 2. 2. 2. 2. 2. 2. 2. 2. 2. 2. 2. 2. 2. 2. 2.
 2. 2. 2. 2. 2. 2. 2. 2. 2. 2. 2. 2. 2. 2. 2. 2. 2. 2. 2. 2. 2. 2. 2. 2.
 2. 2. 2. 2. 2. 2. 2. 2. 2.]
HOMO: -0.5879430946903059 LUMO: -0.4058472137444371
Ne error =  1.3346834748517722e-10
-0.4949255165653059
[2. 2. 2. 2. 2. 2. 2. 2. 2. 2. 2. 2. 2. 2. 2. 2. 2. 2. 2. 2. 2. 2. 2. 2.
 2. 2. 2. 2. 2. 2. 2. 2. 2. 2. 2. 2. 2. 2. 2. 2. 2. 2. 2. 2. 2. 2. 2. 2.
 2. 2. 2. 2. 2. 2. 2. 2. 2.]
HOMO: -0.587993358166817 LUMO: -0.40565786802624276
-0.49487487406400893
[2. 2. 2. 2. 2. 2. 2. 2. 2. 2. 2. 2. 2. 2. 2. 2. 2. 2. 2. 2. 2. 2. 2. 2.
 2. 2. 2. 2. 2. 2. 2. 2. 2. 2. 2. 2. 2. 2. 2. 2. 2. 2. 2. 2. 2. 2. 2. 2.
 2. 2. 2. 2. 2. 2. 2. 2. 2.]
HOMO: -0.5879524738448989 LUMO: -0.40564335478055974
-0.4948548507673454
[2. 2. 2. 2. 2. 2. 2. 2. 2. 2. 2. 2. 2. 2. 2. 2. 2. 2. 2. 2. 2. 2. 2. 2.
 2. 2. 2. 2. 2. 2. 2. 2. 2. 2. 2. 2. 2. 2. 2. 2. 2. 2. 2. 2. 2. 2. 2. 2.
 2. 2. 2. 2. 2. 2. 2. 2. 2.]
HOMO: -0.5879865987918068 LUMO: -0.40570151890955075
Ne error =  -6.497202775790356e-11
-0.4949079855105568
[2. 2. 2. 2. 2. 2. 2. 2. 2. 2. 2. 2. 2. 2. 2. 2. 2. 2. 2. 2. 2. 2. 2. 2.
 2. 2. 2. 2. 2. 2. 2. 2. 2. 2. 2. 2. 2. 2. 2. 2. 2. 2. 2. 2. 2. 2. 2. 2.
 2. 2. 2. 2. 2. 2. 2. 2. 2.]
HOMO: -0.5878712195728704 LUMO: -0.40553456707641833
-0.4947763867108755
[2. 2. 2. 2. 2. 2. 2. 2. 2. 2. 2. 2. 2. 2. 2. 2. 2. 2. 2. 2. 2. 2. 2. 2.
 2. 2. 2. 2. 2. 2. 2. 2. 2. 2. 2. 2. 2. 2. 2. 2. 2. 2. 2. 2. 2. 2. 2. 2.
 2. 2. 2. 2. 2. 2. 2. 2. 2.]
HOMO: -0.5878672987201605 LUMO: -0.4055815431721164
-0.494801196684249
[2. 2. 2. 2. 2. 2. 2. 2. 2. 2. 2. 2. 2. 2. 2. 2. 2. 2. 2. 2. 2. 2. 2. 2.
 2. 2. 2. 2. 2. 2. 2. 2. 2. 2. 2. 2. 2. 2. 2. 2. 2. 2. 2. 2. 2. 2. 2. 2.
 2. 2. 2. 2. 2. 2. 2. 2. 2.]
HOMO: -0.5878506526520497 LUMO: -0.40558590464460964
-0.4947958417739129
[2. 2. 2. 2. 2. 2. 2. 2. 2. 2. 2. 2. 2. 2. 2. 2. 2. 2. 2. 2. 2. 2. 2. 2.
 2. 2. 2. 2. 2. 2. 2. 2. 2. 2. 2. 2. 2. 2. 2. 2. 2. 2. 2. 2. 2. 2. 2. 2.
 2. 2. 2. 2. 2. 2. 2. 2. 2.]
HOMO: -0.5878451097404884 LUMO: -0.4055613552439917
-0.49478118743252386
[2. 2. 2. 2. 2. 2. 2. 2. 2. 2. 2. 2. 2. 2. 2. 2. 2. 2. 2. 2. 2. 2. 2. 2.
 2. 2. 2. 2. 2. 2. 2. 2. 2. 2. 2. 2. 2. 2. 2. 2. 2. 2. 2. 2. 2. 2. 2. 2.
 2. 2. 2. 2. 2. 2. 2. 2. 2.]
HOMO: -0.587839609622678 LUMO: -0.4056003746162736
-0.49479976394889835
[2. 2. 2. 2. 2. 2. 2. 2. 2. 2. 2. 2. 2. 2. 2. 2. 2. 2. 2. 2. 2. 2. 2. 2.
 2. 2. 2. 2. 2. 2. 2. 2. 2. 2. 2. 2. 2. 2. 2. 2. 2. 2. 2. 2. 2. 2. 2. 2.
 2. 2. 2. 2. 2. 2. 2. 2. 2.]
HOMO: -0.5878167323925005 LUMO: -0.40560835769187126
Ne error =  -8.529355000064243e-11
-0.49479915426750054
[2. 2. 2. 2. 2. 2. 2. 2. 2. 2. 2. 2. 2. 2. 2. 2. 2. 2. 2. 2. 2. 2. 2. 2.
 2. 2. 2. 2. 2. 2. 2. 2. 2. 2. 2. 2. 2. 2. 2. 2. 2. 2. 2. 2. 2. 2. 2. 2.
 2. 2. 2. 2. 2. 2. 2. 2. 2.]
HOMO: -0.5878078135777712 LUMO: -0.4055832714908806
-0.49477724791524275
[2. 2. 2. 2. 2. 2. 2. 2. 2. 2. 2. 2. 2. 2. 2. 2. 2. 2. 2. 2. 2. 2. 2. 2.
 2. 2. 2. 2. 2. 2. 2. 2. 2. 2. 2. 2. 2. 2. 2. 2. 2. 2. 2. 2. 2. 2. 2. 2.
 2. 2. 2. 2. 2. 2. 2. 2. 2.]
HOMO: -0.5878086501807599 LUMO: -0.4055875019905342
Ne error =  -1.9414869711908977e-10
-0.4947910720557599
[2. 2. 2. 2. 2. 2. 2. 2. 2. 2. 2. 2. 2. 2. 2. 2. 2. 2. 2. 2. 2. 2. 2. 2.
 2. 2. 2. 2. 2. 2. 2. 2. 2. 2. 2. 2. 2. 2. 2. 2. 2. 2. 2. 2. 2. 2. 2. 2.
 2. 2. 2. 2. 2. 2. 2. 2. 2.]
HOMO: -0.5878104845908665 LUMO: -0.4056032922611321
Ne error =  -7.183587058534613e-11
-0.4947929064658665
[2. 2. 2. 2. 2. 2. 2. 2. 2. 2. 2. 2. 2. 2. 2. 2. 2. 2. 2. 2. 2. 2. 2. 2.
 2. 2. 2. 2. 2. 2. 2. 2. 2. 2. 2. 2. 2. 2. 2. 2. 2. 2. 2. 2. 2. 2. 2. 2.
 2. 2. 2. 2. 2. 2. 2. 2. 2.]
HOMO: -0.5878055698622229 LUMO: -0.40558905402382894
Ne error =  -1.5131718100747094e-10
-0.4947879917372229
[2. 2. 2. 2. 2. 2. 2. 2. 2. 2. 2. 2. 2. 2. 2. 2. 2. 2. 2. 2. 2. 2. 2. 2.
 2. 2. 2. 2. 2. 2. 2. 2. 2. 2. 2. 2. 2. 2. 2. 2. 2. 2. 2. 2. 2. 2. 2. 2.
 2. 2. 2. 2. 2. 2. 2. 2. 2.]
HOMO: -0.5878054716336409 LUMO: -0.40558879888938976
Ne error =  -1.5330670066759922e-10
-0.49478789350864094
[2. 2. 2. 2. 2. 2. 2. 2. 2. 2. 2. 2. 2. 2. 2. 2. 2. 2. 2. 2. 2. 2. 2. 2.
 2. 2. 2. 2. 2. 2. 2. 2. 2. 2. 2. 2. 2. 2. 2. 2. 2. 2. 2. 2. 2. 2. 2. 2.
 2. 2. 2. 2. 2. 2. 2. 2. 2.]
HOMO: -0.5878042810428754 LUMO: -0.40558880164633837
Ne error =  -1.4355805433297064e-10
-0.4947867029178754
[2. 2. 2. 2. 2. 2. 2. 2. 2. 2. 2. 2. 2. 2. 2. 2. 2. 2. 2. 2. 2. 2. 2. 2.
 2. 2. 2. 2. 2. 2. 2. 2. 2. 2. 2. 2. 2. 2. 2. 2. 2. 2. 2. 2. 2. 2. 2. 2.
 2. 2. 2. 2. 2. 2. 2. 2. 2.]
HOMO: -0.5878044434460793 LUMO: -0.4055877154956263
Ne error =  -1.553956963107339e-10
-0.4947868653210793
[2. 2. 2. 2. 2. 2. 2. 2. 2. 2. 2. 2. 2. 2. 2. 2. 2. 2. 2. 2. 2. 2. 2. 2.
 2. 2. 2. 2. 2. 2. 2. 2. 2. 2. 2. 2. 2. 2. 2. 2. 2. 2. 2. 2. 2. 2. 2. 2.
 2. 2. 2. 2. 2. 2. 2. 2. 2.]
HOMO: -0.5878040774491706 LUMO: -0.40558562585427266
Ne error =  -1.7055867829185445e-10
-0.4947864993241706
[2. 2. 2. 2. 2. 2. 2. 2. 2. 2. 2. 2. 2. 2. 2. 2. 2. 2. 2. 2. 2. 2. 2. 2.
 2. 2. 2. 2. 2. 2. 2. 2. 2. 2. 2. 2. 2. 2. 2. 2. 2. 2. 2. 2. 2. 2. 2. 2.
 2. 2. 2. 2. 2. 2. 2. 2. 2.]
HOMO: -0.5878037703851153 LUMO: -0.4055844350622166
Ne error =  -1.7831780496635474e-10
-0.49478619226011533
[2. 2. 2. 2. 2. 2. 2. 2. 2. 2. 2. 2. 2. 2. 2. 2. 2. 2. 2. 2. 2. 2. 2. 2.
 2. 2. 2. 2. 2. 2. 2. 2. 2. 2. 2. 2. 2. 2. 2. 2. 2. 2. 2. 2. 2. 2. 2. 2.
 2. 2. 2. 2. 2. 2. 2. 2. 2.]
HOMO: -0.5878026564065123 LUMO: -0.4055805841713062
-0.4947730661589036
[2. 2. 2. 2. 2. 2. 2. 2. 2. 2. 2. 2. 2. 2. 2. 2. 2. 2. 2. 2. 2. 2. 2. 2.
 2. 2. 2. 2. 2. 2. 2. 2. 2. 2. 2. 2. 2. 2. 2. 2. 2. 2. 2. 2. 2. 2. 2. 2.
 2. 2. 2. 2. 2. 2. 2. 2. 2.]
HOMO: -0.5878037503356055 LUMO: -0.4055831926250809
Ne error =  -1.9124968275718857e-10
-0.4947861722106055
[2. 2. 2. 2. 2. 2. 2. 2. 2. 2. 2. 2. 2. 2. 2. 2. 2. 2. 2. 2. 2. 2. 2. 2.
 2. 2. 2. 2. 2. 2. 2. 2. 2. 2. 2. 2. 2. 2. 2. 2. 2. 2. 2. 2. 2. 2. 2. 2.
 2. 2. 2. 2. 2. 2. 2. 2. 2.]
HOMO: -0.58780335942254 LUMO: -0.4055818838923123
Ne error =  -1.9844037524308078e-10
-0.49478578129754003
[2. 2. 2. 2. 2. 2. 2. 2. 2. 2. 2. 2. 2. 2. 2. 2. 2. 2. 2. 2. 2. 2. 2. 2.
 2. 2. 2. 2. 2. 2. 2. 2. 2. 2. 2. 2. 2. 2. 2. 2. 2. 2. 2. 2. 2. 2. 2. 2.
 2. 2. 2. 2. 2. 2. 2. 2. 2.]
converged SCF energy = -580.322219051205
time of dfet_ao : 572519.730  (cpu),  15437.022  (wall) 
time of total calc : 573066.040  (cpu),  15452.129  (wall) 
 This problem is unconstrained.

 Bad direction in the line search;
   refresh the lbfgs memory and restart the iteration.
 This problem is unconstrained.
 This problem is unconstrained.
 This problem is unconstrained.
 This problem is unconstrained.
 This problem is unconstrained.
 This problem is unconstrained.
 This problem is unconstrained.
 Cauchy                time 0.000E+00 seconds.
 Subspace minimization time 0.000E+00 seconds.
 Line search           time 0.000E+00 seconds.

 Total User time 0.000E+00 seconds.

RUNNING THE L-BFGS-B CODE

           * * *

Machine precision = 2.220D-16
 N =        78606     M =           10

At X0         0 variables are exactly at the bounds

At iterate    0    f=  6.07920D+02    |proj g|=  5.39794D-05

At iterate    1    f=  6.07920D+02    |proj g|=  4.95488D-05

           * * *

Tit   = total number of iterations
Tnf   = total number of function evaluations
Tnint = total number of segments explored during Cauchy searches
Skip  = number of BFGS updates skipped
Nact  = number of active bounds at final generalized Cauchy point
Projg = norm of the final projected gradient
F     = final function value

           * * *

   N    Tit     Tnf  Tnint  Skip  Nact     Projg        F
78606      1      3      1     0     0   4.955D-05   6.079D+02
  F =   607.91991736605496     

CONVERGENCE: NORM_OF_PROJECTED_GRADIENT_<=_PGTOL            

 Cauchy                time 0.000E+00 seconds.
 Subspace minimization time 0.000E+00 seconds.
 Line search           time 0.000E+00 seconds.

 Total User time 0.000E+00 seconds.

