tiger-i26c1n15 10.36.18
Q-Chem Developer Version! Running on 10.36.18.*
                  Welcome to Q-Chem
     A Quantum Leap Into The Future Of Chemistry


 Q-Chem 5.1, Q-Chem, Inc., Pleasanton, CA (2018)

 Yihan Shao,  Zhengting Gan,  E. Epifanovsky,  A. T. B. Gilbert,  M. Wormit,  
 J. Kussmann,  A. W. Lange,  A. Behn,  Jia Deng,  Xintian Feng,  D. Ghosh,  
 M. Goldey,  P. R. Horn,  L. D. Jacobson,  I. Kaliman,  T. Kus,  A. Landau,  
 Jie Liu,  E. I. Proynov,  R. M. Richard,  R. P. Steele,  E. J. Sundstrom,  
 H. L. Woodcock III,  P. M. Zimmerman,  D. Zuev,  B. Albrecht,  E. Alguire,  
 S. A. Baeppler,  D. Barton,  Z. Benda,  Y. A. Bernard,  E. J. Berquist,  
 K. B. Bravaya,  H. Burton,  D. Casanova,  Chun-Min Chang,  Yunqing Chen,  
 A. Chien,  K. D. Closser,  M. P. Coons,  S. Coriani,  S. Dasgupta,  
 A. L. Dempwolff,  M. Diedenhofen,  Hainam Do,  R. G. Edgar,  Po-Tung Fang,  
 S. Faraji,  S. Fatehi,  Qingguo Feng,  K. D. Fenk,  J. Fosso-Tande,  
 Qinghui Ge,  A. Ghysels,  G. Gidofalvi,  J. Gomes,  J. Gonthier,  A. Gunina,  
 D. Hait,  M. W. D. Hanson-Heine,  P. H. P. Harbach,  A. W. Hauser,  
 J. E. Herr,  E. G. Hohenstein,  Z. C. Holden,  Kerwin Hui,  B. C. Huynh,  
 T.-C. Jagau,  Hyunjun Ji,  B. Kaduk,  K. Khistyaev,  Jaehoon Kim,  
 P. Klunzinger,  K. Koh,  D. Kosenkov,  L. Koulias,  T. Kowalczyk,  
 C. M. Krauter,  A. Kunitsa,  Ka Un Lao,  A. Laurent,  K. V. Lawler,  
 Joonho Lee,  D. Lefrancois,  S. Lehtola,  D. S. Levine,  Yi-Pei Li,  
 You-Sheng Lin,  Fenglai Liu,  E. Livshits,  A. Luenser,  P. Manohar,  
 E. Mansoor,  S. F. Manzer,  Shan-Ping Mao,  Yuezhi Mao,  N. Mardirossian,  
 A. V. Marenich,  T. Markovich,  L. A. Martinez-Martinez,  S. A. Maurer,  
 N. J. Mayhall,  S. C. McKenzie,  J.-M. Mewes,  A. F. Morrison,  
 J. W. Mullinax,  K. Nanda,  T. S. Nguyen-Beck,  R. Olivares-Amaya,  
 J. A. Parkhill,  T. M. Perrine,  F. Plasser,  P. Pokhilko,  S. Prager,  
 A. Prociuk,  E. Ramos,  D. R. Rehn,  F. Rob,  M. Schneider,  N. Sergueev,  
 S. M. Sharada,  S. Sharma,  D. W. Small,  T. Stauch,  T. Stein,  
 Yu-Chuan Su,  A. J. W. Thom,  A. Tkatchenko,  T. Tsuchimochi,  N. M. Tubman,  
 L. Vogt,  M. L. Vidal,  O. Vydrov,  M. A. Watson,  J. Wenzel,  
 M. de Wergifosse,  T. A. Wesolowski,  A. White,  J. Witte,  A. Yamada,  
 Jun Yang,  K. Yao,  S. Yeganeh,  S. R. Yost,  Zhi-Qiang You,  A. Zech,  
 Igor Ying Zhang,  Xing Zhang,  Yan Zhao,  Ying Zhu,  B. R. Brooks,  
 G. K. L. Chan,  C. J. Cramer,  M. S. Gordon,  W. J. Hehre,  A. Klamt,  
 M. W. Schmidt,  C. D. Sherrill,  D. G. Truhlar,  A. Aspuru-Guzik,  R. Baer,  
 A. T. Bell,  N. A. Besley,  Jeng-Da Chai,  R. A. DiStasio Jr.,  A. Dreuw,  
 B. D. Dunietz,  T. R. Furlani,  Chao-Ping Hsu,  Yousung Jung,  Jing Kong,  
 D. S. Lambrecht,  WanZhen Liang,  C. Ochsenfeld,  V. A. Rassolov,  
 L. V. Slipchenko,  J. E. Subotnik,  T. Van Voorhis,  J. M. Herbert,  
 A. I. Krylov,  P. M. W. Gill,  M. Head-Gordon

 Contributors to earlier versions of Q-Chem not listed above: 
 R. D. Adamson,  B. Austin,  J. Baker,  G. J. O. Beran,  K. Brandhorst,  
 S. T. Brown,  E. F. C. Byrd,  A. K. Chakraborty,  C.-L. Cheng,  
 Siu Hung Chien,  D. M. Chipman,  D. L. Crittenden,  H. Dachsel,  
 R. J. Doerksen,  A. D. Dutoi,  L. Fusti-Molnar,  W. A. Goddard III,  
 A. Golubeva-Zadorozhnaya,  S. R. Gwaltney,  G. Hawkins,  A. Heyden,  
 S. Hirata,  G. Kedziora,  F. J. Keil,  C. Kelley,  Jihan Kim,  R. A. King,  
 R. Z. Khaliullin,  P. P. Korambath,  W. Kurlancheek,  A. M. Lee,  M. S. Lee,  
 S. V. Levchenko,  Ching Yeh Lin,  D. Liotard,  R. C. Lochan,  I. Lotan,  
 P. E. Maslen,  N. Nair,  D. P. O'Neill,  D. Neuhauser,  E. Neuscamman,  
 C. M. Oana,  R. Olson,  B. Peters,  R. Peverati,  P. A. Pieniazek,  
 Y. M. Rhee,  J. Ritchie,  M. A. Rohrdanz,  E. Rosta,  N. J. Russ,  
 H. F. Schaefer III,  N. E. Schultz,  N. Shenvi,  A. C. Simmonett,  A. Sodt,  
 D. Stuck,  K. S. Thanthiriwatte,  V. Vanovschi,  Tao Wang,  A. Warshel,  
 C. F. Williams,  Q. Wu,  X. Xu,  W. Zhang

 Please cite Q-Chem as follows:
 Y. Shao et al., Mol. Phys. 113, 184-215 (2015)
 DOI: 10.1080/00268976.2014.952696

 Q-Chem 5.1.0 for Intel X86 EM64T Linux

 Parts of Q-Chem use Armadillo 8.300.2 (Tropical Shenanigans).
 http://arma.sourceforge.net/

 Q-Chem begins on Fri Jun  8 00:40:17 2018  

Host: tiger-i26c1n15
0

     Scratch files written to /scratch/xingz/qchem35990//
 Using version located at /tigress/xingz/qchem/dfet_interface/bin/qchem


Total Memory Limit in MB = 2000
Mega-Array Size in MB = 192

Checking the input file for inconsistencies... 	...done.
Finally everything over in PARseQInput

--------------------------------------------------------------
User input:
--------------------------------------------------------------
$molecule
0 1
C          0.19029        1.81032        0.77251
C         -0.77197        0.97760        1.38021
C         -0.97791       -0.33113        0.89701
C         -0.22159       -0.80716       -0.19388
C          0.74067        0.02556       -0.80158
C          0.94661        1.33430       -0.31839
C          0.39637        3.11997        1.25604
C         -1.52883        1.45395        2.47187
C         -1.94085       -1.16444        1.50514
C         -0.42767       -2.11681       -0.67741
C          1.49753       -0.45079       -1.89324
C          1.90955        2.16760       -0.92652
C         -0.36131        3.58534        2.34265
C         -1.31692        2.75838        2.94615
C         -2.48468        0.61774        3.07061
C         -2.68919       -0.68193        2.59077
C         -2.13902       -2.46601        1.01728
C         -1.38793       -2.93874       -0.06607
C          0.33001       -2.58218       -1.76403
C          1.28562       -1.75522       -2.36752
C          2.45338        0.38542       -2.49199
C          2.65789        1.68510       -2.01214
C          2.10772        3.46917       -0.43865
C          1.35663        3.94190        0.64470
H         -0.21323        4.58868        2.72388
H         -1.89108        3.13672        3.78350
H         -3.07262        0.97082        3.90944
H         -3.43170       -1.31115        3.06692
H         -2.87504       -3.11628        1.47486
H         -1.55627       -3.94629       -0.42727
H          0.18193       -3.58552       -2.14526
H          1.85978       -2.13355       -3.20488
H          3.04132        0.03234       -3.33081
H          3.40040        2.31432       -2.48829
H          2.84374        4.11944       -0.89624
H          1.52497        4.94945        1.00590
$end

$rem
jobtype opt
basis 6-31G*
method hf
$end
--------------------------------------------------------------
 ----------------------------------------------------------------
             Standard Nuclear Orientation (Angstroms)
    I     Atom           X                Y                Z
 ----------------------------------------------------------------
    1      C       1.3991875237    -0.1759621446     0.0000018674
    2      C       0.8519816767     1.1237424207     0.0000039662
    3      C      -0.5471990263     1.2997000763    -0.0000030851
    4      C      -1.3991876665     0.1759648529     0.0000009341
    5      C      -0.8519818196    -1.1237397124    -0.0000011648
    6      C       0.5472036419    -1.2997064473    -0.0000038564
    7      C       2.7993474096    -0.3520463391    -0.0000005053
    8      C       1.7045568935     2.2482794087     0.0000011476
    9      C      -1.0947927212     2.6003238659    -0.0000001047
   10      C      -2.7993475525     0.3520490475     0.0000033068
   11      C      -1.7045570363    -2.2482767004     0.0000016539
   12      C       1.0947883110    -2.6003276299    -0.0000034104
   13      C       3.6398105487     0.7726719471    -0.0000012339
   14      C       3.0963909300     2.0633929400    -0.0000011289
   15      C       1.1507435171     3.5385029236    -0.0000029001
   16      C      -0.2387444002     3.7132490316     0.0000025403
   17      C      -2.4890559436     2.7658329599    -0.0000005336
   18      C      -3.3351471320     1.6498639799    -0.0000016162
   19      C      -3.6398149589    -0.7726757111    -0.0000022811
   20      C      -3.0963910728    -2.0633902317     0.0000039304
   21      C      -1.1507479273    -3.5385066876    -0.0000006149
   22      C       0.2387532831    -3.7132489303    -0.0000031652
   23      C       2.4890558008    -2.7658302516     0.0000033351
   24      C       3.3351469891    -1.6498612715     0.0000044177
   25      H       4.7165368116     0.6517764973    -0.0000022062
   26      H       3.7624137298     2.9180095288    -0.0000039973
   27      H       1.7938121013     4.4105335968     0.0000012469
   28      H      -0.6458665812     4.7173452724     0.0000023988
   29      H      -2.9227311828     3.7587487452    -0.0000046210
   30      H      -4.4082825160     1.7993338616     0.0000046385
   31      H      -4.7165412218    -0.6517802613    -0.0000013088
   32      H      -3.7624091142    -2.9180158998    -0.0000029442
   33      H      -1.7938122441    -4.4105308885     0.0000015546
   34      H       0.6458754640    -4.7173451710    -0.0000030237
   35      H       2.9227267726    -3.7587525092     0.0000011059
   36      H       4.4082823732    -1.7993311532    -0.0000018370
 ----------------------------------------------------------------
 Molecular Point Group                 C1    NOp =  1
 Largest Abelian Subgroup              C1    NOp =  1
 Nuclear Repulsion Energy =  1843.3371761834 hartrees
 There are       78 alpha and       78 beta electrons
 Requested basis set is 6-31G(d)
 There are 120 shells and 384 basis functions

 Total QAlloc Memory Limit   2000 MB
 Mega-Array Size       188 MB
 MEM_STATIC part       192 MB

finished with qalloc call
 Job number = 2, Threshold = 1.00E-11
Integral type ranges set in mkLRange.C for JobNum: 2  <1-21|1-21>
Symmetry turned off temporarily
 Using the largest function pair in Schwarz integrals
Total number of integrals generated =         1069866
Symmetry turned back on
 A cutoff of  1.0D-11 yielded   4776 shell pairs
 There are     55170 function pairs
 Job number = 11, Threshold = 1.00E-11
Integral type ranges set in mkLRange.C for JobNum: 11  <1-21|22-22>
 
 -------------------------------------------------------
 OpenMP Integral Computing Module                       
 Release: version 1.0, May 2013, Q-Chem Inc. Pittsburgh 
 -------------------------------------------------------
 Integral Job Info:
 Integral job number is                      11
 Integral operator is                         1
 short-range coefficients                     0
 long-range coefficients              100000000
 Omega coefficients                           0
 if combine SR and LR in K                    0
 Integral screening is                        0
 Integral computing path is                   2
 max size of driver memory is            800000
 size of driver memory is                593474
 size of scratch memory is              2361544
 max col of scratch BK array               1296
 max len of scratch array in speh3          155
 max len of scratch index in speh4           18
 max int batch size is                      520
 min int batch size is                       52
 fixed nKL is                                52
 max L of basis functions is                  2
 order of int derivative is                   0
 number of shells is                        120
 number of basis is                         384
 number of cartesian basis is               384
 number of contracted shell pairs          4776
 number of primitive shell pairs          16434
 maxK2 (contraction) of shell pair           36
 max number of K2 of shell pair               1
 max number of CS2 of shell pair            672
 max number of PS2 of shell pair           3924
 mem total for path MDJ                  644508
 -------------------------------------------------------
 Smallest overlap matrix eigenvalue = 7.49E-05
 Multipole matrices computed through 2nd order

 Scale SEOQF with 1.000000e-01/1.000000e-01/1.000000e+00

 Standard Electronic Orientation quadrupole field applied
 Nucleus-field energy     =     0.0000000872 hartrees
 ENuRep (before)= 1843.3371761834
 ENucField = 0.0000000872
 ENuRep (after) = 1843.3371762706
 Guess from superposition of atomic densities
 Warning:  Energy on first SCF cycle will be non-variational
 SAD guess density has 156.000000 electrons

 -----------------------------------------------------------------------
  General SCF calculation program by
  Eric Jon Sundstrom, Paul Horn, Yuezhi Mao, Dmitri Zuev, Alec White,
  David Stuck, Shaama M.S., Shane Yost, Joonho Lee, David Small,
  Daniel Levine, Susi Lehtola, Hugh Burton, Evgeny Epifanovsky
 -----------------------------------------------------------------------
 Hartree-Fock
Finding J and K together
 Job number = 22, Threshold = 1.00E-11
 using 20 threads for integral computing
 -------------------------------------------------------
 OpenMP Integral computing Module                
 Release: version 2.0, May 2017, Q-Chem Inc. Pleasanton 
 -------------------------------------------------------
Integral type ranges set in mkLRange.C for JobNum: 22  <1-21|1-21>
 MakeJK  time:  CPU      24.73 s  wall       1.27 s
 A restricted SCF calculation will be
 performed using DIIS
 SCF converges when DIIS error is below 1.0e-08
 ---------------------------------------
  Cycle       Energy         DIIS error
 ---------------------------------------
Finding J and K together
 Job number = 22, Threshold = 1.00E-11
Integral type ranges set in mkLRange.C for JobNum: 22  <1-21|1-21>
 MakeJK  time:  CPU     114.18 s  wall       5.72 s
    1    -928.1749424802      4.58e-02  
Finding J and K together
 Job number = 22, Threshold = 1.00E-11
Integral type ranges set in mkLRange.C for JobNum: 22  <1-21|1-21>
 MakeJK  time:  CPU     113.50 s  wall       5.69 s
    2    -915.6811881397      2.92e-03  
Finding J and K together
 Job number = 22, Threshold = 1.00E-11
Integral type ranges set in mkLRange.C for JobNum: 22  <1-21|1-21>
 MakeJK  time:  CPU     113.28 s  wall       5.68 s
    3    -915.9162324739      7.79e-04  
Finding J and K together
 Job number = 22, Threshold = 1.00E-11
Integral type ranges set in mkLRange.C for JobNum: 22  <1-21|1-21>
 MakeJK  time:  CPU     113.36 s  wall       5.68 s
    4    -915.9325485202      3.42e-04  
Finding J and K together
 Job number = 22, Threshold = 1.00E-11
Integral type ranges set in mkLRange.C for JobNum: 22  <1-21|1-21>
 MakeJK  time:  CPU     113.29 s  wall       5.68 s
    5    -915.9349910161      7.13e-05  
Finding J and K together
 Job number = 22, Threshold = 1.00E-11
Integral type ranges set in mkLRange.C for JobNum: 22  <1-21|1-21>
 MakeJK  time:  CPU     113.31 s  wall       5.68 s
    6    -915.9351566382      1.80e-05  
Finding J and K together
 Job number = 22, Threshold = 1.00E-11
Integral type ranges set in mkLRange.C for JobNum: 22  <1-21|1-21>
 MakeJK  time:  CPU     113.30 s  wall       5.68 s
    7    -915.9351858206      8.35e-06  
Finding J and K together
 Job number = 22, Threshold = 1.00E-11
Integral type ranges set in mkLRange.C for JobNum: 22  <1-21|1-21>
 MakeJK  time:  CPU     113.25 s  wall       5.68 s
    8    -915.9351932677      3.27e-06  
Finding J and K together
 Job number = 22, Threshold = 1.00E-11
Integral type ranges set in mkLRange.C for JobNum: 22  <1-21|1-21>
 MakeJK  time:  CPU     113.33 s  wall       5.68 s
    9    -915.9351944212      5.90e-07  
Finding J and K together
 Job number = 22, Threshold = 1.00E-11
Integral type ranges set in mkLRange.C for JobNum: 22  <1-21|1-21>
 MakeJK  time:  CPU     113.28 s  wall       5.68 s
   10    -915.9351944419      1.13e-07  
Finding J and K together
 Job number = 22, Threshold = 1.00E-11
Integral type ranges set in mkLRange.C for JobNum: 22  <1-21|1-21>
 MakeJK  time:  CPU     113.23 s  wall       5.68 s
   11    -915.9351944425      1.80e-08  
   12    -915.9351944425      4.26e-09  Convergence criterion met
 ---------------------------------------
 SCF time:   CPU 1283.01s  wall 64.00s 
 SCF   energy in the final basis set =     -915.9351944425
 Total energy in the final basis set =     -915.9351944425
Symmetry turned off temporarily
 
 --------------------------------------------------------------
 
                    Orbital Energies (a.u.)
 --------------------------------------------------------------
 
 Alpha MOs
 -- Occupied --
-11.243 -11.243 -11.243 -11.242 -11.242 -11.242 -11.241 -11.241
-11.241 -11.241 -11.241 -11.241 -11.240 -11.240 -11.240 -11.239
-11.239 -11.239 -11.238 -11.238 -11.238 -11.238 -11.238 -11.238
 -1.219  -1.170  -1.170  -1.109  -1.109  -1.091  -1.039  -1.038
 -1.010  -1.010  -0.965  -0.965  -0.865  -0.865  -0.861  -0.861
 -0.843  -0.774  -0.762  -0.738  -0.738  -0.723  -0.700  -0.651
 -0.651  -0.636  -0.636  -0.626  -0.626  -0.590  -0.587  -0.587
 -0.581  -0.579  -0.553  -0.553  -0.537  -0.535  -0.520  -0.520
 -0.513  -0.513  -0.500  -0.459  -0.459  -0.442  -0.442  -0.421
 -0.351  -0.350  -0.326  -0.326  -0.248  -0.248
 -- Virtual --
  0.064   0.064   0.125   0.125   0.154   0.177   0.236   0.238
  0.252   0.252   0.271   0.271   0.277   0.277   0.289   0.298
  0.314   0.314   0.343   0.343   0.364   0.392   0.395   0.395
  0.421   0.431   0.431   0.454   0.454   0.481   0.481   0.483
  0.483   0.487   0.524   0.529   0.529   0.548   0.557   0.557
  0.635   0.673   0.680   0.696   0.696   0.699   0.712   0.714
  0.723   0.744   0.744   0.747   0.747   0.754   0.754   0.756
  0.778   0.778   0.782   0.782   0.790   0.797   0.807   0.807
  0.817   0.817   0.821   0.825   0.826   0.827   0.832   0.832
  0.840   0.840   0.841   0.841   0.860   0.866   0.866   0.879
  0.879   0.881   0.881   0.933   0.936   0.951   0.951   0.961
  0.961   0.967   1.013   1.033   1.068   1.068   1.080   1.080
  1.083   1.083   1.115   1.118   1.121   1.128   1.128   1.132
  1.132   1.136   1.144   1.144   1.181   1.185   1.185   1.190
  1.190   1.219   1.219   1.224   1.226   1.226   1.274   1.274
  1.280   1.293   1.296   1.306   1.311   1.311   1.345   1.390
  1.423   1.423   1.424   1.424   1.429   1.454   1.454   1.498
  1.498   1.503   1.503   1.527   1.527   1.536   1.536   1.558
  1.558   1.578   1.606   1.616   1.676   1.676   1.676   1.676
  1.691   1.694   1.694   1.732   1.746   1.746   1.752   1.752
  1.754   1.762   1.762   1.770   1.794   1.794   1.798   1.798
  1.910   1.910   1.941   1.941   1.969   2.009   2.017   2.019
  2.025   2.071   2.071   2.090   2.090   2.100   2.100   2.131
  2.152   2.152   2.171   2.171   2.205   2.210   2.216   2.216
  2.222   2.259   2.259   2.259   2.259   2.274   2.276   2.285
  2.285   2.316   2.329   2.329   2.344   2.344   2.360   2.361
  2.384   2.410   2.410   2.461   2.461   2.468   2.468   2.561
  2.561   2.569   2.569   2.572   2.577   2.577   2.578   2.595
  2.595   2.617   2.618   2.652   2.668   2.687   2.687   2.691
  2.691   2.698   2.698   2.729   2.741   2.741   2.748   2.774
  2.774   2.791   2.806   2.915   2.915   2.978   2.978   2.985
  2.985   3.034   3.034   3.068   3.075   3.082   3.107   3.115
  3.119   3.119   3.151   3.181   3.181   3.195   3.195   3.199
  3.199   3.267   3.304   3.304   3.316   3.378   3.391   3.391
  3.420   3.420   3.421   3.603   3.732   3.732   3.815   3.815
  4.022   4.073   4.521   4.521   4.522   4.531   4.531   4.536
  4.539   4.580   4.580   4.580   4.580   4.597   4.691   4.691
  4.767   4.779   4.779   4.832   4.913   4.963   4.963   5.198
  5.198   5.492
 --------------------------------------------------------------
 
          Ground-State Mulliken Net Atomic Charges

     Atom                 Charge (a.u.)
  ----------------------------------------
      1 C                    -0.035627
      2 C                    -0.035623
      3 C                    -0.035629
      4 C                    -0.035621
      5 C                    -0.035630
      6 C                    -0.035623
      7 C                     0.059965
      8 C                     0.059967
      9 C                     0.059957
     10 C                     0.059965
     11 C                     0.059960
     12 C                     0.059967
     13 C                    -0.223757
     14 C                    -0.223758
     15 C                    -0.223752
     16 C                    -0.223748
     17 C                    -0.223756
     18 C                    -0.223756
     19 C                    -0.223753
     20 C                    -0.223758
     21 C                    -0.223751
     22 C                    -0.223755
     23 C                    -0.223757
     24 C                    -0.223753
     25 H                     0.211586
     26 H                     0.211585
     27 H                     0.211585
     28 H                     0.211584
     29 H                     0.211587
     30 H                     0.211585
     31 H                     0.211587
     32 H                     0.211584
     33 H                     0.211586
     34 H                     0.211585
     35 H                     0.211586
     36 H                     0.211585
  ----------------------------------------
  Sum of atomic charges =    -0.000000

 -----------------------------------------------------------------
                    Cartesian Multipole Moments
 -----------------------------------------------------------------
    Charge (ESU x 10^10)
                 0.0000
    Dipole Moment (Debye)
         X      -0.0000      Y      -0.0000      Z      -0.0000
       Tot       0.0000
    Quadrupole Moments (Debye-Ang)
        XX    -115.8776     XY      -0.0000     YY    -115.8780
        XZ      -0.0000     YZ       0.0000     ZZ    -146.2998
    Octopole Moments (Debye-Ang^2)
       XXX      -0.0002    XXY       0.0004    XYY      -0.0003
       YYY      -0.0005    XXZ      -0.0001    XYZ       0.0000
       YYZ      -0.0000    XZZ       0.0000    YZZ       0.0001
       ZZZ      -0.0000
    Hexadecapole Moments (Debye-Ang^3)
      XXXX   -3717.1057   XXXY      -0.0003   XXYY   -1239.0367
      XYYY      -0.0009   YYYY   -3717.1134   XXXZ      -0.0009
      XXYZ       0.0004   XYYZ       0.0000   YYYZ       0.0003
      XXZZ    -812.3229   XYZZ       0.0000   YYZZ    -812.3218
      XZZZ      -0.0001   YZZZ       0.0000   ZZZZ    -158.4758
 -----------------------------------------------------------------
drvman_main.C: 73: calling DrvMan  Calculating analytic gradient of the SCF energy
drvman.C : 218: Calculating analytic gradient of the SCF energy
drvman.C: 244: calling SCF_Grad for normal SCF gradient
 Job number = 111, Threshold = 1.00E-11
Integral type ranges set in mkLRange.C for JobNum: 11  <1-21|22-22>
Finding J and K together
 ML is being used
 Job number = 122, Threshold = 1.00E-11
Integral type ranges set in mkLRange.C for JobNum: 22  <1-21|1-21>
 MakeJK  time:  CPU     546.10 s  wall      43.93 s
 Gradient of SCF Energy
            1           2           3           4           5           6
    1  -0.0124166  -0.0075661   0.0048663   0.0124160   0.0075611  -0.0048565
    2   0.0015629  -0.0099778  -0.0115481  -0.0015594   0.0099826   0.0115377
    3   0.0000006   0.0000012  -0.0000015   0.0000003  -0.0000001  -0.0000008
            7           8           9          10          11          12
    1   0.0047869   0.0029150  -0.0018891  -0.0047833  -0.0029183   0.0018794
    2  -0.0005930   0.0038505   0.0044455   0.0005942  -0.0038453  -0.0044493
    3  -0.0000010   0.0000003   0.0000002   0.0000014   0.0000001  -0.0000005
           13          14          15          16          17          18
    1   0.0065310  -0.0329747   0.0487022  -0.0522784   0.0421922  -0.0193225
    2  -0.0524860   0.0413501  -0.0205907  -0.0078775   0.0318978  -0.0492217
    3   0.0000000   0.0000000  -0.0000015   0.0000010   0.0000006  -0.0000013
           19          20          21          22          23          24
    1  -0.0065343   0.0329782  -0.0487130   0.0522932  -0.0421939   0.0193233
    2   0.0524804  -0.0413453   0.0205808   0.0078826  -0.0318950   0.0492259
    3  -0.0000018   0.0000015  -0.0000000  -0.0000000   0.0000006   0.0000011
           25          26          27          28          29          30
    1   0.0065196   0.0052996   0.0023649  -0.0007618  -0.0041605  -0.0060616
    2   0.0010375   0.0039372   0.0061699   0.0065580   0.0051266   0.0026189
    3   0.0000000  -0.0000001   0.0000004  -0.0000001  -0.0000003   0.0000005
           31          32          33          34          35          36
    1  -0.0065197  -0.0053008  -0.0023618   0.0007617   0.0041606   0.0060616
    2  -0.0010375  -0.0039400  -0.0061656  -0.0065581  -0.0051298  -0.0026189
    3   0.0000003  -0.0000005   0.0000001   0.0000000  -0.0000002  -0.0000005
 Max gradient component =       5.249E-02
 RMS gradient           =       1.804E-02
drvman.C: 248: out of SCF_Grad for normal SCF gradient
 Gradient time:  CPU 551.39 s  wall 44.87 s
 ------------------------------------------------------------------------------
                     drvman        : Timing summary (seconds)
 ------------------------------------------------------------------------------
     job step          cpu (% of tot)      sys (% of tot)     wall (% of tot)
 ------------------------------------------------------------------------------
 ------------------------------------------------------------------------------
   Grand Totals     0.5514E+03          0.3100E-04          0.4487E+02
 ------------------------------------------------------------------------------
drvman_main.C: 77: out of DrvMan  Geometry Optimization Parameters
   NAtoms,    NIC,     NZ,  NCons,   NDum,   NFix, NCnnct, MaxDiis
       36     306       0       0       0       0       0       0


** GEOMETRY OPTIMIZATION IN DELOCALIZED INTERNAL COORDINATES **
   Searching for a Minimum

   Optimization Cycle:   1

                       Coordinates (Angstroms)
     ATOM                X               Y               Z
      1  C         1.3991875237   -0.1759621446    0.0000018674
      2  C         0.8519816767    1.1237424207    0.0000039662
      3  C        -0.5471990263    1.2997000763   -0.0000030851
      4  C        -1.3991876665    0.1759648529    0.0000009341
      5  C        -0.8519818196   -1.1237397124   -0.0000011648
      6  C         0.5472036419   -1.2997064473   -0.0000038564
      7  C         2.7993474096   -0.3520463391   -0.0000005053
      8  C         1.7045568935    2.2482794087    0.0000011476
      9  C        -1.0947927212    2.6003238659   -0.0000001047
     10  C        -2.7993475525    0.3520490475    0.0000033068
     11  C        -1.7045570363   -2.2482767004    0.0000016539
     12  C         1.0947883110   -2.6003276299   -0.0000034104
     13  C         3.6398105487    0.7726719471   -0.0000012339
     14  C         3.0963909300    2.0633929400   -0.0000011289
     15  C         1.1507435171    3.5385029236   -0.0000029001
     16  C        -0.2387444002    3.7132490316    0.0000025403
     17  C        -2.4890559436    2.7658329599   -0.0000005336
     18  C        -3.3351471320    1.6498639799   -0.0000016162
     19  C        -3.6398149589   -0.7726757111   -0.0000022811
     20  C        -3.0963910728   -2.0633902317    0.0000039304
     21  C        -1.1507479273   -3.5385066876   -0.0000006149
     22  C         0.2387532831   -3.7132489303   -0.0000031652
     23  C         2.4890558008   -2.7658302516    0.0000033351
     24  C         3.3351469891   -1.6498612715    0.0000044177
     25  H         4.7165368116    0.6517764973   -0.0000022062
     26  H         3.7624137298    2.9180095288   -0.0000039973
     27  H         1.7938121013    4.4105335968    0.0000012469
     28  H        -0.6458665812    4.7173452724    0.0000023988
     29  H        -2.9227311828    3.7587487452   -0.0000046210
     30  H        -4.4082825160    1.7993338616    0.0000046385
     31  H        -4.7165412218   -0.6517802613   -0.0000013088
     32  H        -3.7624091142   -2.9180158998   -0.0000029442
     33  H        -1.7938122441   -4.4105308885    0.0000015546
     34  H         0.6458754640   -4.7173451710   -0.0000030237
     35  H         2.9227267726   -3.7587525092    0.0000011059
     36  H         4.4082823732   -1.7993311532   -0.0000018370
   Point Group: c1    Number of degrees of freedom:   102


   Energy is   -915.935194442


 Attempting to Generate Delocalized Internal Coordinates

102 Hessian modes will be used to form the next step
  Hessian Eigenvalues:
     0.021042    0.021042    0.021044    0.021071    0.021071    0.021297
     0.021332    0.021332    0.021450    0.021498    0.021551    0.021551
     0.021560    0.021560    0.021560    0.021977    0.021994    0.021994
     0.022025    0.022025    0.022032    0.022037    0.022037    0.022040
     0.022040    0.022044    0.022044    0.022155    0.022158    0.022158
     0.022162    0.022163    0.022164    0.160000    0.160000    0.160000
     0.160000    0.160000    0.160000    0.160000    0.160000    0.160000
     0.160000    0.160000    0.160000    0.223455    0.225550    0.225550
     0.226620    0.226621    0.228034    0.242941    0.244318    0.244318
     0.246568    0.246568    0.250000    0.250000    0.250000    0.250000
     0.321611    0.329936    0.329937    0.355746    0.355751    0.355751
     0.355754    0.355754    0.355755    0.355755    0.355755    0.355756
     0.355756    0.355757    0.355757    0.371547    0.383751    0.383755
     0.418850    0.418851    0.419237    0.420213    0.420215    0.435576
     0.436442    0.436447    0.438898    0.444587    0.444588    0.445870
     0.445878    0.445883    0.446014    0.446483    0.446585    0.446589
     0.452396    0.452401    0.452461    0.452471    0.452502    0.452508

 Minimum Search - Taking Simple RFO Step
 Searching for Lamda that Minimizes Along All modes
 Value Taken    Lamda =  -0.02954151
 Step Taken.  Stepsize is  0.260266

                             Maximum     Tolerance    Cnvgd?
         Gradient           0.081318      0.000300      NO
         Displacement       0.170203      0.001200      NO
         Energy change     *********      0.000001      NO


 New Cartesian Coordinates Obtained by Inverse Iteration

 Displacement from previous Coordinates is:  0.221038
 ----------------------------------------------------------------
             Standard Nuclear Orientation (Angstroms)
    I     Atom           X                Y                Z
 ----------------------------------------------------------------
    1      C       1.4088646003    -0.1771815747     0.0000005622
    2      C       0.8578767792     1.1315207397     0.0000018853
    3      C      -0.5509873497     1.3087021547    -0.0000018976
    4      C      -1.4088644290     0.1771827320     0.0000004512
    5      C      -0.8578754827    -1.1315202002    -0.0000008007
    6      C       0.5509880700    -1.3087025767    -0.0000023323
    7      C       2.8046874839    -0.3527228911    -0.0000005002
    8      C       1.7078119904     2.2525676677     0.0000006278
    9      C      -1.0968778618     2.6052899836    -0.0000007058
   10      C      -2.8046869340     0.3527230295     0.0000020770
   11      C      -1.7078093851    -2.2525676189     0.0000007127
   12      C       1.0968756387    -2.6052906209    -0.0000020936
   13      C       3.6381015202     0.7954506045    -0.0000005608
   14      C       3.1114907662     2.0462511143    -0.0000004404
   15      C       1.1301681789     3.5484154120    -0.0000010498
   16      C      -0.2163590203     3.7177576972     0.0000005621
   17      C      -2.5079307468     2.7529618265    -0.0000008334
   18      C      -3.3278517159     1.6715043244    -0.0000003077
   19      C      -3.6381021161    -0.7954528445    -0.0000005083
   20      C      -3.1114905941    -2.0462509384     0.0000017309
   21      C      -1.1301689204    -3.5484145316    -0.0000002094
   22      C       0.2163594492    -3.7177561630    -0.0000016815
   23      C       2.5079324582    -2.7529618444     0.0000009593
   24      C       3.3278522448    -1.6715070476     0.0000016673
   25      H       4.7058326254     0.6727961497    -0.0000010770
   26      H       3.7699622475     2.8956682916    -0.0000015796
   27      H       1.7702592238     4.4117680973     0.0000015783
   28      H      -0.6227479058     4.7127163297     0.0000002527
   29      H      -2.9355763927     3.7389705472    -0.0000037060
   30      H      -4.3927049107     1.8170433958     0.0000035966
   31      H      -4.7058328276    -0.6727966051     0.0000004460
   32      H      -3.7699598441    -2.8956699968    -0.0000020921
   33      H      -1.7702597315    -4.4117670056     0.0000009898
   34      H       0.6227450709    -4.7127160155    -0.0000021884
   35      H       2.9355762446    -3.7389714216     0.0000001563
   36      H       4.3927052364    -1.8170471850    -0.0000011852
 ----------------------------------------------------------------
 Molecular Point Group                 C1    NOp =  1
 Largest Abelian Subgroup              C1    NOp =  1
 Nuclear Repulsion Energy =  1842.8018265606 hartrees
 There are       78 alpha and       78 beta electrons
 JobOver = FALSE
 Applying Cartesian multipole field
    Component          Value
    ---------          -----
     (2,0,0)        1.00000E-11
     (0,2,0)        2.00000E-11
     (0,0,2)       -3.00000E-10
 Nucleus-field energy     =     0.0000000873 hartrees
 ENuRep (before)= 1842.8018265606
 ENucField = 0.0000000873
 ENuRep (after) = 1842.8018266479
 Requested basis set is 6-31G(d)
 There are 120 shells and 384 basis functions
 Job number = 2, Threshold = 1.00E-11
Integral type ranges set in mkLRange.C for JobNum: 2  <1-21|1-21>
Symmetry turned off temporarily
Total number of integrals generated =         1054314
Symmetry turned back on
 A cutoff of  1.0D-11 yielded   4764 shell pairs
 There are     54738 function pairs
 Job number = 11, Threshold = 1.00E-11
Integral type ranges set in mkLRange.C for JobNum: 11  <1-21|22-22>
 Smallest overlap matrix eigenvalue = 7.82E-05
 Multipole matrices computed through 2nd order
 Guess MOs from SCF MO coefficient file
 Reading MOs from coefficient file
 Reading MOs from coefficient file

 -----------------------------------------------------------------------
  General SCF calculation program by
  Eric Jon Sundstrom, Paul Horn, Yuezhi Mao, Dmitri Zuev, Alec White,
  David Stuck, Shaama M.S., Shane Yost, Joonho Lee, David Small,
  Daniel Levine, Susi Lehtola, Hugh Burton, Evgeny Epifanovsky
 -----------------------------------------------------------------------
 Hartree-Fock
Finding J and K together
 Job number = 22, Threshold = 1.00E-11
 using 20 threads for integral computing
 -------------------------------------------------------
 OpenMP Integral computing Module                
 Release: version 2.0, May 2017, Q-Chem Inc. Pleasanton 
 -------------------------------------------------------
Integral type ranges set in mkLRange.C for JobNum: 22  <1-21|1-21>
 MakeJK  time:  CPU     112.82 s  wall       5.66 s
 A restricted SCF calculation will be
 performed using DIIS
 SCF converges when DIIS error is below 1.0e-08
 ---------------------------------------
  Cycle       Energy         DIIS error
 ---------------------------------------
Finding J and K together
 Job number = 22, Threshold = 1.00E-11
Integral type ranges set in mkLRange.C for JobNum: 22  <1-21|1-21>
 MakeJK  time:  CPU     112.68 s  wall       5.65 s
    1    -916.0631974941      1.59e-03  
Finding J and K together
 Job number = 22, Threshold = 1.00E-11
Integral type ranges set in mkLRange.C for JobNum: 22  <1-21|1-21>
 MakeJK  time:  CPU     112.58 s  wall       5.64 s
    2    -915.9499409735      2.44e-04  
Finding J and K together
 Job number = 22, Threshold = 1.00E-11
Integral type ranges set in mkLRange.C for JobNum: 22  <1-21|1-21>
 MakeJK  time:  CPU     112.67 s  wall       5.65 s
    3    -915.9509659226      1.69e-04  
Finding J and K together
 Job number = 22, Threshold = 1.00E-11
Integral type ranges set in mkLRange.C for JobNum: 22  <1-21|1-21>
 MakeJK  time:  CPU     112.67 s  wall       5.65 s
    4    -915.9515512543      3.65e-05  
Finding J and K together
 Job number = 22, Threshold = 1.00E-11
Integral type ranges set in mkLRange.C for JobNum: 22  <1-21|1-21>
 MakeJK  time:  CPU     112.68 s  wall       5.65 s
    5    -915.9516165124      1.81e-05  
Finding J and K together
 Job number = 22, Threshold = 1.00E-11
Integral type ranges set in mkLRange.C for JobNum: 22  <1-21|1-21>
 MakeJK  time:  CPU     112.71 s  wall       5.65 s
    6    -915.9516434256      6.15e-06  
Finding J and K together
 Job number = 22, Threshold = 1.00E-11
Integral type ranges set in mkLRange.C for JobNum: 22  <1-21|1-21>
 MakeJK  time:  CPU     112.73 s  wall       5.65 s
    7    -915.9516475990      2.20e-06  
Finding J and K together
 Job number = 22, Threshold = 1.00E-11
Integral type ranges set in mkLRange.C for JobNum: 22  <1-21|1-21>
 MakeJK  time:  CPU     112.64 s  wall       5.65 s
    8    -915.9516480344      3.21e-07  
Finding J and K together
 Job number = 22, Threshold = 1.00E-11
Integral type ranges set in mkLRange.C for JobNum: 22  <1-21|1-21>
 MakeJK  time:  CPU     112.77 s  wall       5.65 s
    9    -915.9516480400      8.58e-08  
Finding J and K together
 Job number = 22, Threshold = 1.00E-11
Integral type ranges set in mkLRange.C for JobNum: 22  <1-21|1-21>
 MakeJK  time:  CPU     112.79 s  wall       5.65 s
   10    -915.9516480403      1.93e-08  
   11    -915.9516480403      3.60e-09  Convergence criterion met
 ---------------------------------------
 SCF time:   CPU 1248.73s  wall 63.00s 
 SCF   energy in the final basis set =     -915.9516480403
 Total energy in the final basis set =     -915.9516480403
Symmetry turned off temporarily
 
 --------------------------------------------------------------
 
                    Orbital Energies (a.u.)
 --------------------------------------------------------------
 
 Alpha MOs
 -- Occupied --
-11.243 -11.243 -11.243 -11.243 -11.243 -11.243 -11.242 -11.242
-11.242 -11.241 -11.241 -11.241 -11.235 -11.235 -11.235 -11.235
-11.235 -11.235 -11.234 -11.234 -11.234 -11.234 -11.234 -11.234
 -1.216  -1.170  -1.170  -1.110  -1.110  -1.089  -1.052  -1.030
 -1.012  -1.012  -0.970  -0.970  -0.862  -0.862  -0.860  -0.860
 -0.849  -0.772  -0.761  -0.738  -0.738  -0.726  -0.701  -0.653
 -0.653  -0.632  -0.632  -0.632  -0.632  -0.594  -0.586  -0.586
 -0.581  -0.577  -0.563  -0.563  -0.531  -0.527  -0.520  -0.520
 -0.509  -0.509  -0.509  -0.456  -0.456  -0.444  -0.444  -0.419
 -0.363  -0.343  -0.329  -0.329  -0.255  -0.255
 -- Virtual --
  0.069   0.069   0.130   0.130   0.148   0.187   0.237   0.239
  0.252   0.252   0.272   0.272   0.281   0.281   0.293   0.298
  0.317   0.317   0.345   0.345   0.367   0.390   0.398   0.398
  0.431   0.431   0.433   0.457   0.457   0.481   0.481   0.482
  0.482   0.490   0.523   0.529   0.529   0.541   0.554   0.554
  0.639   0.651   0.679   0.695   0.706   0.706   0.715   0.723
  0.723   0.744   0.744   0.746   0.746   0.748   0.748   0.779
  0.779   0.779   0.779   0.783   0.793   0.795   0.811   0.811
  0.815   0.815   0.817   0.819   0.825   0.829   0.829   0.833
  0.838   0.838   0.851   0.851   0.853   0.866   0.866   0.885
  0.885   0.890   0.890   0.933   0.944   0.950   0.950   0.964
  0.964   0.966   1.016   1.033   1.068   1.068   1.092   1.092
  1.093   1.093   1.109   1.118   1.123   1.123   1.123   1.129
  1.129   1.136   1.143   1.143   1.186   1.186   1.200   1.206
  1.206   1.216   1.216   1.224   1.229   1.229   1.279   1.282
  1.282   1.288   1.291   1.303   1.305   1.305   1.369   1.390
  1.420   1.422   1.422   1.423   1.423   1.453   1.461   1.496
  1.496   1.507   1.507   1.524   1.524   1.541   1.541   1.561
  1.561   1.573   1.610   1.626   1.677   1.677   1.680   1.680
  1.698   1.700   1.700   1.736   1.747   1.747   1.756   1.756
  1.760   1.767   1.767   1.771   1.796   1.796   1.804   1.804
  1.909   1.909   1.938   1.938   1.978   2.002   2.013   2.017
  2.017   2.072   2.072   2.083   2.083   2.104   2.104   2.115
  2.144   2.144   2.159   2.159   2.198   2.205   2.222   2.222
  2.226   2.255   2.255   2.270   2.270   2.273   2.276   2.287
  2.287   2.324   2.328   2.328   2.343   2.343   2.368   2.389
  2.406   2.406   2.411   2.478   2.478   2.494   2.494   2.562
  2.562   2.569   2.592   2.592   2.592   2.592   2.594   2.599
  2.600   2.600   2.632   2.639   2.671   2.671   2.679   2.679
  2.691   2.702   2.702   2.745   2.746   2.746   2.757   2.782
  2.782   2.796   2.822   2.925   2.925   2.994   2.994   2.996
  2.996   3.056   3.056   3.061   3.073   3.098   3.102   3.107
  3.120   3.120   3.174   3.181   3.181   3.203   3.203   3.207
  3.207   3.267   3.293   3.293   3.335   3.386   3.392   3.392
  3.423   3.441   3.441   3.595   3.726   3.726   3.830   3.830
  3.996   4.082   4.523   4.526   4.526   4.535   4.538   4.538
  4.557   4.585   4.585   4.587   4.587   4.589   4.694   4.694
  4.775   4.779   4.779   4.834   4.913   4.968   4.968   5.197
  5.197   5.482
 --------------------------------------------------------------
 
          Ground-State Mulliken Net Atomic Charges

     Atom                 Charge (a.u.)
  ----------------------------------------
      1 C                    -0.032779
      2 C                    -0.032778
      3 C                    -0.032779
      4 C                    -0.032778
      5 C                    -0.032779
      6 C                    -0.032778
      7 C                     0.030061
      8 C                     0.030062
      9 C                     0.030060
     10 C                     0.030062
     11 C                     0.030060
     12 C                     0.030060
     13 C                    -0.208005
     14 C                    -0.208006
     15 C                    -0.208003
     16 C                    -0.208002
     17 C                    -0.208006
     18 C                    -0.208005
     19 C                    -0.208003
     20 C                    -0.208005
     21 C                    -0.208003
     22 C                    -0.208004
     23 C                    -0.208004
     24 C                    -0.208003
     25 H                     0.209363
     26 H                     0.209363
     27 H                     0.209363
     28 H                     0.209363
     29 H                     0.209363
     30 H                     0.209363
     31 H                     0.209363
     32 H                     0.209363
     33 H                     0.209363
     34 H                     0.209363
     35 H                     0.209363
     36 H                     0.209363
  ----------------------------------------
  Sum of atomic charges =    -0.000000

 -----------------------------------------------------------------
                    Cartesian Multipole Moments
 -----------------------------------------------------------------
    Charge (ESU x 10^10)
                 0.0000
    Dipole Moment (Debye)
         X      -0.0000      Y      -0.0000      Z      -0.0000
       Tot       0.0000
    Quadrupole Moments (Debye-Ang)
        XX    -115.8222     XY      -0.0000     YY    -115.8223
        XZ      -0.0000     YZ       0.0000     ZZ    -145.8682
    Octopole Moments (Debye-Ang^2)
       XXX      -0.0000    XXY       0.0001    XYY      -0.0001
       YYY      -0.0002    XXZ      -0.0000    XYZ       0.0000
       YYZ      -0.0000    XZZ      -0.0000    YZZ      -0.0000
       ZZZ       0.0001
    Hexadecapole Moments (Debye-Ang^3)
      XXXX   -3727.8938   XXXY       0.0001   XXYY   -1242.6315
      XYYY      -0.0003   YYYY   -3727.8971   XXXZ      -0.0004
      XXYZ       0.0002   XYYZ       0.0001   YYYZ       0.0001
      XXZZ    -809.0434   XYZZ       0.0000   YYZZ    -809.0433
      XZZZ       0.0001   YZZZ      -0.0000   ZZZZ    -157.5835
 -----------------------------------------------------------------
drvman_main.C: 73: calling DrvMan  Calculating analytic gradient of the SCF energy
drvman.C : 218: Calculating analytic gradient of the SCF energy
drvman.C: 244: calling SCF_Grad for normal SCF gradient
 Job number = 111, Threshold = 1.00E-11
Integral type ranges set in mkLRange.C for JobNum: 11  <1-21|22-22>
Finding J and K together
 ML is being used
 Job number = 122, Threshold = 1.00E-11
Integral type ranges set in mkLRange.C for JobNum: 22  <1-21|1-21>
 MakeJK  time:  CPU     545.45 s  wall      42.82 s
 Gradient of SCF Energy
            1           2           3           4           5           6
    1  -0.0093144  -0.0056721   0.0036444   0.0093133   0.0056717  -0.0036430
    2   0.0011711  -0.0074807  -0.0086528  -0.0011704   0.0074812   0.0086518
    3   0.0000003   0.0000007  -0.0000008   0.0000002  -0.0000001  -0.0000004
            7           8           9          10          11          12
    1   0.0069093   0.0042090  -0.0027064  -0.0069088  -0.0042070   0.0027027
    2  -0.0008671   0.0055483   0.0064164   0.0008681  -0.0055489  -0.0064172
    3  -0.0000005   0.0000001   0.0000001   0.0000007   0.0000000  -0.0000002
           13          14          15          16          17          18
    1   0.0000447  -0.0040779   0.0049940  -0.0055387   0.0049542  -0.0014658
    2  -0.0057441   0.0040459  -0.0028321  -0.0015060   0.0029108  -0.0055525
    3   0.0000000  -0.0000000  -0.0000006   0.0000004   0.0000003  -0.0000006
           19          20          21          22          23          24
    1  -0.0000454   0.0040771  -0.0049949   0.0055400  -0.0049514   0.0014652
    2   0.0057425  -0.0040449   0.0028318   0.0015076  -0.0029091   0.0055505
    3  -0.0000008   0.0000006  -0.0000000   0.0000001   0.0000003   0.0000006
           25          26          27          28          29          30
    1  -0.0006468   0.0007558  -0.0017853   0.0017996  -0.0011393   0.0010446
    2   0.0016885  -0.0016427   0.0002840  -0.0001670  -0.0014046   0.0014752
    3   0.0000000  -0.0000000   0.0000002  -0.0000001  -0.0000002   0.0000003
           31          32          33          34          35          36
    1   0.0006470  -0.0007558   0.0017855  -0.0018001   0.0011392  -0.0010447
    2  -0.0016883   0.0016426  -0.0002839   0.0001669   0.0014045  -0.0014754
    3   0.0000002  -0.0000002   0.0000000  -0.0000000  -0.0000001  -0.0000002
 Max gradient component =       9.314E-03
 RMS gradient           =       3.408E-03
drvman.C: 248: out of SCF_Grad for normal SCF gradient
 Gradient time:  CPU 550.66 s  wall 43.50 s
 ------------------------------------------------------------------------------
                     drvman        : Timing summary (seconds)
 ------------------------------------------------------------------------------
     job step          cpu (% of tot)      sys (% of tot)     wall (% of tot)
 ------------------------------------------------------------------------------
 ------------------------------------------------------------------------------
   Grand Totals     0.5507E+03          0.3400E-04          0.4350E+02
 ------------------------------------------------------------------------------
drvman_main.C: 77: out of DrvMan  Geometry Optimization Parameters
   NAtoms,    NIC,     NZ,  NCons,   NDum,   NFix, NCnnct, MaxDiis
       36     306       0       0       0       0       0       0

 Cartesian Hessian Update
 Hessian Updated using BFGS Update


** GEOMETRY OPTIMIZATION IN DELOCALIZED INTERNAL COORDINATES **
   Searching for a Minimum

   Optimization Cycle:   2

                       Coordinates (Angstroms)
     ATOM                X               Y               Z
      1  C         1.4088646003   -0.1771815747    0.0000005622
      2  C         0.8578767792    1.1315207397    0.0000018853
      3  C        -0.5509873497    1.3087021547   -0.0000018976
      4  C        -1.4088644290    0.1771827320    0.0000004512
      5  C        -0.8578754827   -1.1315202002   -0.0000008007
      6  C         0.5509880700   -1.3087025767   -0.0000023323
      7  C         2.8046874839   -0.3527228911   -0.0000005002
      8  C         1.7078119904    2.2525676677    0.0000006278
      9  C        -1.0968778618    2.6052899836   -0.0000007058
     10  C        -2.8046869340    0.3527230295    0.0000020770
     11  C        -1.7078093851   -2.2525676189    0.0000007127
     12  C         1.0968756387   -2.6052906209   -0.0000020936
     13  C         3.6381015202    0.7954506045   -0.0000005608
     14  C         3.1114907662    2.0462511143   -0.0000004404
     15  C         1.1301681789    3.5484154120   -0.0000010498
     16  C        -0.2163590203    3.7177576972    0.0000005621
     17  C        -2.5079307468    2.7529618265   -0.0000008334
     18  C        -3.3278517159    1.6715043244   -0.0000003077
     19  C        -3.6381021161   -0.7954528445   -0.0000005083
     20  C        -3.1114905941   -2.0462509384    0.0000017309
     21  C        -1.1301689204   -3.5484145316   -0.0000002094
     22  C         0.2163594492   -3.7177561630   -0.0000016815
     23  C         2.5079324582   -2.7529618444    0.0000009593
     24  C         3.3278522448   -1.6715070476    0.0000016673
     25  H         4.7058326254    0.6727961497   -0.0000010770
     26  H         3.7699622475    2.8956682916   -0.0000015796
     27  H         1.7702592238    4.4117680973    0.0000015783
     28  H        -0.6227479058    4.7127163297    0.0000002527
     29  H        -2.9355763927    3.7389705472   -0.0000037060
     30  H        -4.3927049107    1.8170433958    0.0000035966
     31  H        -4.7058328276   -0.6727966051    0.0000004460
     32  H        -3.7699598441   -2.8956699968   -0.0000020921
     33  H        -1.7702597315   -4.4117670056    0.0000009898
     34  H         0.6227450709   -4.7127160155   -0.0000021884
     35  H         2.9355762446   -3.7389714216    0.0000001563
     36  H         4.3927052364   -1.8170471850   -0.0000011852
   Point Group: c1    Number of degrees of freedom:   102


   Energy is   -915.951648040

 Hessian Updated using BFGS Update

 91 Hessian modes will be used to form the next step
  Hessian Eigenvalues:
     0.021042    0.021042    0.021044    0.021071    0.021071    0.021297
     0.021332    0.021332    0.021450    0.021498    0.021551    0.021551
     0.021560    0.021560    0.021560    0.021977    0.021994    0.021994
     0.022025    0.022025    0.022032    0.022037    0.022037    0.022040
     0.022040    0.022044    0.022044    0.022155    0.022158    0.022158
     0.022162    0.022164    0.155369    0.160000    0.160000    0.160000
     0.223455    0.225550    0.225550    0.226620    0.226621    0.228034
     0.242941    0.244318    0.244318    0.246568    0.246568    0.250000
     0.250000    0.329936    0.329937    0.333580    0.355747    0.355751
     0.355752    0.355754    0.355754    0.355755    0.355755    0.355756
     0.355756    0.355757    0.355757    0.363935    0.371547    0.380325
     0.383751    0.383755    0.418850    0.418851    0.419237    0.420213
     0.420215    0.435576    0.436442    0.436447    0.444587    0.444588
     0.445587    0.445870    0.445878    0.445883    0.446014    0.446585
     0.446589    0.452396    0.452401    0.452462    0.452502    0.452507
     0.496528

 Minimum Search - Taking Simple RFO Step
 Searching for Lamda that Minimizes Along All modes
 Value Taken    Lamda =  -0.00146946
 Step Taken.  Stepsize is  0.076545

                             Maximum     Tolerance    Cnvgd?
         Gradient           0.019167      0.000300      NO
         Displacement       0.062370      0.001200      NO
         Energy change     -0.016454      0.000001      NO


 New Cartesian Coordinates Obtained by Inverse Iteration

 Displacement from previous Coordinates is:  0.072769
 ----------------------------------------------------------------
             Standard Nuclear Orientation (Angstroms)
    I     Atom           X                Y                Z
 ----------------------------------------------------------------
    1      C       1.4149790849    -0.1779506259    -0.0000007032
    2      C       0.8615995893     1.1364320672    -0.0000005237
    3      C      -0.5533799947     1.3143829320    -0.0000003302
    4      C      -1.4149787734     0.1779505984    -0.0000000527
    5      C      -0.8615990925    -1.1364330300    -0.0000002171
    6      C       0.5533797796    -1.3143836879    -0.0000003525
    7      C       2.8041669437    -0.3526575072    -0.0000004689
    8      C       1.7074940699     2.2521500258    -0.0000000309
    9      C      -1.0966729352     2.6048076537    -0.0000009874
   10      C      -2.8041666210     0.3526578867     0.0000004820
   11      C      -1.7074934906    -2.2521508522    -0.0000001784
   12      C       1.0966726751    -2.6048085706    -0.0000005867
   13      C       3.6402958594     0.7984399514     0.0000000645
   14      C       3.1151617977     2.0457334835     0.0000003553
   15      C       1.1286783421     3.5518096723     0.0000004410
   16      C      -0.2140755122     3.7206770515    -0.0000010900
   17      C      -2.5116168644     2.7533684910    -0.0000008031
   18      C      -3.3292382127     1.6749426961     0.0000006809
   19      C      -3.6402963387    -0.7984408543     0.0000010499
   20      C      -3.1151628702    -2.0457337103    -0.0000002189
   21      C      -1.1286784870    -3.5518092465     0.0000000259
   22      C       0.2140762971    -3.7206769808    -0.0000003307
   23      C       2.5116183307    -2.7533692269    -0.0000013860
   24      C       3.3292389378    -1.6749438516    -0.0000012033
   25      H       4.7076178728     0.6634420725     0.0000000333
   26      H       3.7645174201     2.9034852185     0.0000009715
   27      H       1.7792522471     4.4086374410     0.0000009399
   28      H      -0.6322337209     4.7119107482    -0.0000013808
   29      H      -2.9283655537     3.7451957351    -0.0000015432
   30      H      -4.3967506545     1.8084256706     0.0000011930
   31      H      -4.7076182067    -0.6634418627     0.0000014753
   32      H      -3.7645179633    -2.9034857301    -0.0000001995
   33      H      -1.7792522792    -4.4086373289     0.0000001549
   34      H       0.6322341185    -4.7119109066    -0.0000010483
   35      H       2.9283663377    -3.7451966661    -0.0000011753
   36      H       4.3967515277    -1.8084257409    -0.0000005510
 ----------------------------------------------------------------
 Molecular Point Group                 C1    NOp =  1
 Largest Abelian Subgroup              C1    NOp =  1
 Nuclear Repulsion Energy =  1841.7131171616 hartrees
 There are       78 alpha and       78 beta electrons
 JobOver = FALSE
 Applying Cartesian multipole field
    Component          Value
    ---------          -----
     (2,0,0)        1.00000E-11
     (0,2,0)        2.00000E-11
     (0,0,2)       -3.00000E-10
 Nucleus-field energy     =     0.0000000874 hartrees
 ENuRep (before)= 1841.7131171616
 ENucField = 0.0000000874
 ENuRep (after) = 1841.7131172490
 Requested basis set is 6-31G(d)
 There are 120 shells and 384 basis functions
 Job number = 2, Threshold = 1.00E-11
Integral type ranges set in mkLRange.C for JobNum: 2  <1-21|1-21>
Symmetry turned off temporarily
Symmetry turned back on
 A cutoff of  1.0D-11 yielded   4764 shell pairs
 There are     54738 function pairs
 Job number = 11, Threshold = 1.00E-11
Integral type ranges set in mkLRange.C for JobNum: 11  <1-21|22-22>
 Smallest overlap matrix eigenvalue = 8.02E-05
 Multipole matrices computed through 2nd order
 Guess MOs from SCF MO coefficient file
 Reading MOs from coefficient file
 Reading MOs from coefficient file

 -----------------------------------------------------------------------
  General SCF calculation program by
  Eric Jon Sundstrom, Paul Horn, Yuezhi Mao, Dmitri Zuev, Alec White,
  David Stuck, Shaama M.S., Shane Yost, Joonho Lee, David Small,
  Daniel Levine, Susi Lehtola, Hugh Burton, Evgeny Epifanovsky
 -----------------------------------------------------------------------
 Hartree-Fock
Finding J and K together
 Job number = 22, Threshold = 1.00E-11
 using 20 threads for integral computing
 -------------------------------------------------------
 OpenMP Integral computing Module                
 Release: version 2.0, May 2017, Q-Chem Inc. Pleasanton 
 -------------------------------------------------------
Integral type ranges set in mkLRange.C for JobNum: 22  <1-21|1-21>
 MakeJK  time:  CPU     112.66 s  wall       5.65 s
 A restricted SCF calculation will be
 performed using DIIS
 SCF converges when DIIS error is below 1.0e-08
 ---------------------------------------
  Cycle       Energy         DIIS error
 ---------------------------------------
Finding J and K together
 Job number = 22, Threshold = 1.00E-11
Integral type ranges set in mkLRange.C for JobNum: 22  <1-21|1-21>
 MakeJK  time:  CPU     112.48 s  wall       5.64 s
    1    -915.9429210511      3.70e-04  
Finding J and K together
 Job number = 22, Threshold = 1.00E-11
Integral type ranges set in mkLRange.C for JobNum: 22  <1-21|1-21>
 MakeJK  time:  CPU     112.50 s  wall       5.64 s
    2    -915.9524007550      4.53e-05  
Finding J and K together
 Job number = 22, Threshold = 1.00E-11
Integral type ranges set in mkLRange.C for JobNum: 22  <1-21|1-21>
 MakeJK  time:  CPU     113.54 s  wall       5.69 s
    3    -915.9524631849      2.94e-05  
Finding J and K together
 Job number = 22, Threshold = 1.00E-11
Integral type ranges set in mkLRange.C for JobNum: 22  <1-21|1-21>
 MakeJK  time:  CPU     112.55 s  wall       5.64 s
    4    -915.9524843214      1.05e-05  
Finding J and K together
 Job number = 22, Threshold = 1.00E-11
Integral type ranges set in mkLRange.C for JobNum: 22  <1-21|1-21>
 MakeJK  time:  CPU     112.50 s  wall       5.64 s
    5    -915.9524913423      4.46e-06  
Finding J and K together
 Job number = 22, Threshold = 1.00E-11
Integral type ranges set in mkLRange.C for JobNum: 22  <1-21|1-21>
 MakeJK  time:  CPU     112.59 s  wall       5.64 s
    6    -915.9524935000      1.24e-06  
Finding J and K together
 Job number = 22, Threshold = 1.00E-11
Integral type ranges set in mkLRange.C for JobNum: 22  <1-21|1-21>
 MakeJK  time:  CPU     112.49 s  wall       5.64 s
    7    -915.9524936829      2.99e-07  
Finding J and K together
 Job number = 22, Threshold = 1.00E-11
Integral type ranges set in mkLRange.C for JobNum: 22  <1-21|1-21>
 MakeJK  time:  CPU     112.48 s  wall       5.64 s
    8    -915.9524936876      7.13e-08  
Finding J and K together
 Job number = 22, Threshold = 1.00E-11
Integral type ranges set in mkLRange.C for JobNum: 22  <1-21|1-21>
 MakeJK  time:  CPU     112.47 s  wall       5.64 s
    9    -915.9524936878      2.50e-08  
   10    -915.9524936878      4.78e-09  Convergence criterion met
 ---------------------------------------
 SCF time:   CPU 1134.22s  wall 56.00s 
 SCF   energy in the final basis set =     -915.9524936878
 Total energy in the final basis set =     -915.9524936878
Symmetry turned off temporarily
 
 --------------------------------------------------------------
 
                    Orbital Energies (a.u.)
 --------------------------------------------------------------
 
 Alpha MOs
 -- Occupied --
-11.244 -11.243 -11.243 -11.243 -11.243 -11.243 -11.242 -11.242
-11.242 -11.242 -11.242 -11.241 -11.235 -11.235 -11.235 -11.235
-11.235 -11.235 -11.234 -11.234 -11.234 -11.234 -11.234 -11.234
 -1.215  -1.170  -1.170  -1.111  -1.111  -1.087  -1.052  -1.030
 -1.011  -1.011  -0.971  -0.971  -0.861  -0.861  -0.860  -0.860
 -0.848  -0.772  -0.764  -0.737  -0.737  -0.724  -0.701  -0.652
 -0.652  -0.634  -0.634  -0.631  -0.631  -0.594  -0.586  -0.586
 -0.580  -0.576  -0.565  -0.565  -0.530  -0.525  -0.520  -0.520
 -0.510  -0.508  -0.508  -0.455  -0.455  -0.444  -0.444  -0.418
 -0.365  -0.343  -0.328  -0.328  -0.257  -0.257
 -- Virtual --
  0.071   0.071   0.129   0.129   0.148   0.188   0.235   0.238
  0.252   0.252   0.272   0.272   0.281   0.281   0.292   0.299
  0.316   0.316   0.345   0.345   0.367   0.390   0.398   0.398
  0.430   0.430   0.436   0.456   0.456   0.480   0.480   0.480
  0.480   0.492   0.522   0.527   0.527   0.538   0.553   0.553
  0.637   0.649   0.678   0.692   0.710   0.710   0.716   0.723
  0.724   0.743   0.743   0.745   0.745   0.746   0.746   0.778
  0.778   0.779   0.779   0.782   0.794   0.795   0.814   0.814
  0.815   0.815   0.815   0.819   0.825   0.828   0.828   0.833
  0.837   0.837   0.850   0.851   0.851   0.865   0.865   0.885
  0.885   0.890   0.890   0.934   0.941   0.949   0.949   0.964
  0.964   0.964   1.016   1.033   1.067   1.067   1.093   1.093
  1.093   1.093   1.109   1.117   1.122   1.122   1.122   1.129
  1.129   1.136   1.143   1.143   1.185   1.185   1.200   1.207
  1.207   1.215   1.215   1.224   1.228   1.228   1.279   1.280
  1.280   1.286   1.291   1.301   1.304   1.304   1.366   1.392
  1.420   1.420   1.422   1.423   1.423   1.452   1.462   1.495
  1.495   1.507   1.507   1.523   1.523   1.542   1.542   1.560
  1.560   1.574   1.611   1.624   1.677   1.677   1.680   1.680
  1.699   1.700   1.701   1.736   1.748   1.748   1.756   1.756
  1.761   1.768   1.768   1.771   1.796   1.796   1.803   1.803
  1.910   1.910   1.936   1.936   1.978   1.994   2.011   2.018
  2.022   2.070   2.070   2.077   2.077   2.108   2.108   2.114
  2.143   2.143   2.158   2.158   2.195   2.203   2.223   2.223
  2.226   2.251   2.251   2.269   2.270   2.270   2.271   2.285
  2.285   2.324   2.327   2.327   2.339   2.339   2.369   2.391
  2.404   2.404   2.414   2.479   2.479   2.498   2.498   2.561
  2.561   2.573   2.588   2.588   2.589   2.594   2.594   2.600
  2.603   2.603   2.627   2.641   2.667   2.667   2.675   2.675
  2.692   2.702   2.702   2.743   2.743   2.745   2.751   2.783
  2.783   2.794   2.821   2.924   2.924   2.995   2.995   2.999
  2.999   3.059   3.060   3.060   3.066   3.099   3.104   3.107
  3.117   3.117   3.176   3.180   3.180   3.203   3.203   3.204
  3.204   3.265   3.291   3.291   3.331   3.382   3.390   3.390
  3.417   3.442   3.442   3.590   3.721   3.721   3.831   3.831
  3.984   4.082   4.520   4.525   4.525   4.532   4.538   4.538
  4.559   4.586   4.586   4.587   4.587   4.588   4.693   4.693
  4.775   4.778   4.778   4.834   4.912   4.968   4.968   5.196
  5.196   5.478
 --------------------------------------------------------------
 
          Ground-State Mulliken Net Atomic Charges

     Atom                 Charge (a.u.)
  ----------------------------------------
      1 C                    -0.028696
      2 C                    -0.028696
      3 C                    -0.028696
      4 C                    -0.028697
      5 C                    -0.028696
      6 C                    -0.028696
      7 C                     0.020682
      8 C                     0.020682
      9 C                     0.020682
     10 C                     0.020682
     11 C                     0.020681
     12 C                     0.020681
     13 C                    -0.205239
     14 C                    -0.205239
     15 C                    -0.205237
     16 C                    -0.205237
     17 C                    -0.205239
     18 C                    -0.205238
     19 C                    -0.205238
     20 C                    -0.205238
     21 C                    -0.205238
     22 C                    -0.205238
     23 C                    -0.205238
     24 C                    -0.205238
     25 H                     0.209245
     26 H                     0.209245
     27 H                     0.209245
     28 H                     0.209245
     29 H                     0.209245
     30 H                     0.209245
     31 H                     0.209245
     32 H                     0.209245
     33 H                     0.209245
     34 H                     0.209245
     35 H                     0.209245
     36 H                     0.209245
  ----------------------------------------
  Sum of atomic charges =    -0.000000

 -----------------------------------------------------------------
                    Cartesian Multipole Moments
 -----------------------------------------------------------------
    Charge (ESU x 10^10)
                 0.0000
    Dipole Moment (Debye)
         X      -0.0000      Y       0.0000      Z       0.0000
       Tot       0.0000
    Quadrupole Moments (Debye-Ang)
        XX    -115.8891     XY      -0.0000     YY    -115.8891
        XZ       0.0000     YZ       0.0000     ZZ    -145.8867
    Octopole Moments (Debye-Ang^2)
       XXX      -0.0000    XXY       0.0001    XYY      -0.0000
       YYY       0.0001    XXZ       0.0001    XYZ       0.0000
       YYZ       0.0000    XZZ      -0.0000    YZZ       0.0000
       ZZZ       0.0001
    Hexadecapole Moments (Debye-Ang^3)
      XXXX   -3737.1974   XXXY       0.0001   XXYY   -1245.7324
      XYYY      -0.0001   YYYY   -3737.1979   XXXZ       0.0002
      XXYZ      -0.0000   XYYZ       0.0001   YYYZ      -0.0000
      XXZZ    -810.0366   XYZZ       0.0000   YYZZ    -810.0367
      XZZZ       0.0002   YZZZ      -0.0001   ZZZZ    -157.5803
 -----------------------------------------------------------------
drvman_main.C: 73: calling DrvMan  Calculating analytic gradient of the SCF energy
drvman.C : 218: Calculating analytic gradient of the SCF energy
drvman.C: 244: calling SCF_Grad for normal SCF gradient
 Job number = 111, Threshold = 1.00E-11
Integral type ranges set in mkLRange.C for JobNum: 11  <1-21|22-22>
Finding J and K together
 ML is being used
 Job number = 122, Threshold = 1.00E-11
Integral type ranges set in mkLRange.C for JobNum: 22  <1-21|1-21>
 MakeJK  time:  CPU     545.46 s  wall      42.89 s
 Gradient of SCF Energy
            1           2           3           4           5           6
    1  -0.0014443  -0.0008791   0.0005644   0.0014444   0.0008793  -0.0005648
    2   0.0001819  -0.0011599  -0.0013411  -0.0001815   0.0011594   0.0013411
    3  -0.0000001  -0.0000000   0.0000001   0.0000000  -0.0000000   0.0000001
            7           8           9          10          11          12
    1   0.0031645   0.0019274  -0.0012381  -0.0031644  -0.0019265   0.0012371
    2  -0.0003973   0.0025406   0.0029386   0.0003985  -0.0025412  -0.0029390
    3   0.0000001  -0.0000001  -0.0000000  -0.0000001   0.0000000   0.0000001
           13          14          15          16          17          18
    1  -0.0011307  -0.0008432  -0.0005018   0.0002349   0.0006295   0.0010770
    2  -0.0000739  -0.0007569  -0.0010151  -0.0011079  -0.0009422  -0.0003515
    3   0.0000000  -0.0000000   0.0000002  -0.0000001  -0.0000000   0.0000001
           19          20          21          22          23          24
    1   0.0011305   0.0008423   0.0005013  -0.0002342  -0.0006286  -0.0010770
    2   0.0000732   0.0007572   0.0010158   0.0011082   0.0009422   0.0003508
    3   0.0000001  -0.0000001   0.0000000   0.0000000  -0.0000001  -0.0000001
           25          26          27          28          29          30
    1  -0.0000346   0.0001064  -0.0001754   0.0001850  -0.0001408   0.0000788
    2   0.0001826  -0.0001523   0.0000611   0.0000159  -0.0001212   0.0001683
    3  -0.0000000   0.0000000  -0.0000000   0.0000000  -0.0000000  -0.0000000
           31          32          33          34          35          36
    1   0.0000346  -0.0001063   0.0001753  -0.0001850   0.0001407  -0.0000788
    2  -0.0001825   0.0001523  -0.0000612  -0.0000159   0.0001212  -0.0001682
    3  -0.0000000   0.0000000   0.0000000  -0.0000000   0.0000000   0.0000000
 Max gradient component =       3.165E-03
 RMS gradient           =       9.105E-04
drvman.C: 248: out of SCF_Grad for normal SCF gradient
 Gradient time:  CPU 550.83 s  wall 43.57 s
 ------------------------------------------------------------------------------
                     drvman        : Timing summary (seconds)
 ------------------------------------------------------------------------------
     job step          cpu (% of tot)      sys (% of tot)     wall (% of tot)
 ------------------------------------------------------------------------------
 ------------------------------------------------------------------------------
   Grand Totals     0.5508E+03          0.3500E-04          0.4357E+02
 ------------------------------------------------------------------------------
drvman_main.C: 77: out of DrvMan  Geometry Optimization Parameters
   NAtoms,    NIC,     NZ,  NCons,   NDum,   NFix, NCnnct, MaxDiis
       36     306       0       0       0       0       0       0

 Cartesian Hessian Update
 Hessian Updated using BFGS Update


** GEOMETRY OPTIMIZATION IN DELOCALIZED INTERNAL COORDINATES **
   Searching for a Minimum

   Optimization Cycle:   3

                       Coordinates (Angstroms)
     ATOM                X               Y               Z
      1  C         1.4149790849   -0.1779506259   -0.0000007032
      2  C         0.8615995893    1.1364320672   -0.0000005237
      3  C        -0.5533799947    1.3143829320   -0.0000003302
      4  C        -1.4149787734    0.1779505984   -0.0000000527
      5  C        -0.8615990925   -1.1364330300   -0.0000002171
      6  C         0.5533797796   -1.3143836879   -0.0000003525
      7  C         2.8041669437   -0.3526575072   -0.0000004689
      8  C         1.7074940699    2.2521500258   -0.0000000309
      9  C        -1.0966729352    2.6048076537   -0.0000009874
     10  C        -2.8041666210    0.3526578867    0.0000004820
     11  C        -1.7074934906   -2.2521508522   -0.0000001784
     12  C         1.0966726751   -2.6048085706   -0.0000005867
     13  C         3.6402958594    0.7984399514    0.0000000645
     14  C         3.1151617977    2.0457334835    0.0000003553
     15  C         1.1286783421    3.5518096723    0.0000004410
     16  C        -0.2140755122    3.7206770515   -0.0000010900
     17  C        -2.5116168644    2.7533684910   -0.0000008031
     18  C        -3.3292382127    1.6749426961    0.0000006809
     19  C        -3.6402963387   -0.7984408543    0.0000010499
     20  C        -3.1151628702   -2.0457337103   -0.0000002189
     21  C        -1.1286784870   -3.5518092465    0.0000000259
     22  C         0.2140762971   -3.7206769808   -0.0000003307
     23  C         2.5116183307   -2.7533692269   -0.0000013860
     24  C         3.3292389378   -1.6749438516   -0.0000012033
     25  H         4.7076178728    0.6634420725    0.0000000333
     26  H         3.7645174201    2.9034852185    0.0000009715
     27  H         1.7792522471    4.4086374410    0.0000009399
     28  H        -0.6322337209    4.7119107482   -0.0000013808
     29  H        -2.9283655537    3.7451957351   -0.0000015432
     30  H        -4.3967506545    1.8084256706    0.0000011930
     31  H        -4.7076182067   -0.6634418627    0.0000014753
     32  H        -3.7645179633   -2.9034857301   -0.0000001995
     33  H        -1.7792522792   -4.4086373289    0.0000001549
     34  H         0.6322341185   -4.7119109066   -0.0000010483
     35  H         2.9283663377   -3.7451966661   -0.0000011753
     36  H         4.3967515277   -1.8084257409   -0.0000005510
   Point Group: c1    Number of degrees of freedom:   102


   Energy is   -915.952493688

 Hessian Updated using BFGS Update

 78 Hessian modes will be used to form the next step
  Hessian Eigenvalues:
     0.021042    0.021042    0.021071    0.021332    0.021450    0.021498
     0.021551    0.021560    0.021977    0.021994    0.021994    0.022025
     0.022025    0.022037    0.022037    0.022040    0.022040    0.022044
     0.022044    0.022158    0.022162    0.022163    0.022164    0.147957
     0.160000    0.160000    0.223455    0.225550    0.225550    0.226620
     0.226621    0.228034    0.242941    0.244318    0.246568    0.246568
     0.250000    0.250000    0.297393    0.329936    0.329937    0.355747
     0.355751    0.355752    0.355754    0.355755    0.355755    0.355756
     0.355757    0.355757    0.361144    0.371547    0.383751    0.383755
     0.389256    0.418850    0.418851    0.419237    0.420213    0.420215
     0.435576    0.436442    0.436447    0.444587    0.444588    0.445870
     0.445878    0.445883    0.446014    0.446364    0.446585    0.446589
     0.452396    0.452401    0.452462    0.452502    0.452507    0.490876

 Minimum Search - Taking Simple RFO Step
 Searching for Lamda that Minimizes Along All modes
 Value Taken    Lamda =  -0.00010824
 Step Taken.  Stepsize is  0.020983

                             Maximum     Tolerance    Cnvgd?
         Gradient           0.003522      0.000300      NO
         Displacement       0.015515      0.001200      NO
         Energy change     -0.000846      0.000001      NO


 New Cartesian Coordinates Obtained by Inverse Iteration

 Displacement from previous Coordinates is:  0.020374
 ----------------------------------------------------------------
             Standard Nuclear Orientation (Angstroms)
    I     Atom           X                Y                Z
 ----------------------------------------------------------------
    1      C       1.4153579641    -0.1779982779    -0.0000003627
    2      C       0.8618301353     1.1367363820    -0.0000002826
    3      C      -0.5535281374     1.3147348366    -0.0000003065
    4      C      -1.4153577352     0.1779982214    -0.0000001611
    5      C      -0.8618297236    -1.1367369268    -0.0000002746
    6      C       0.5535279627    -1.3147351648    -0.0000004021
    7      C       2.8022085244    -0.3524115006    -0.0000004181
    8      C       1.7063015168     2.2505774279    -0.0000001957
    9      C      -1.0959070276     2.6029889993    -0.0000000619
   10      C      -2.8022082981     0.3524113851    -0.0000000605
   11      C      -1.7063010483    -2.2505780296    -0.0000000855
   12      C       1.0959069519    -2.6029893743    -0.0000005415
   13      C       3.6410369309     0.7986453947    -0.0000004470
   14      C       3.1158270367     2.0461194187    -0.0000002961
   15      C       1.1288707363     3.5525533642    -0.0000003422
   16      C      -0.2140778641     3.7214453366     0.0000001533
   17      C      -2.5121659336     2.7539072504     0.0000001797
   18      C      -3.3299052111     1.6753251877    -0.0000001334
   19      C      -3.6410368740    -0.7986462639    -0.0000000897
   20      C      -3.1158272502    -2.0461198337     0.0000003317
   21      C      -1.1288706379    -3.5525532913    -0.0000003622
   22      C       0.2140782892    -3.7214453144    -0.0000005694
   23      C       2.5121665047    -2.7539076435    -0.0000004437
   24      C       3.3299054737    -1.6753260542    -0.0000004624
   25      H       4.7080496821     0.6608163462    -0.0000004731
   26      H       3.7629419467     2.9056281699    -0.0000001790
   27      H       1.7817409173     4.4076986656    -0.0000005045
   28      H      -0.6348770359     4.7116175759     0.0000003633
   29      H      -2.9263086712     3.7468819829     0.0000005080
   30      H      -4.3978190446     1.8059890228    -0.0000001645
   31      H      -4.7080496025    -0.6608169598    -0.0000002086
   32      H      -3.7629418615    -2.9056287768     0.0000006472
   33      H      -1.7817404940    -4.4076989011    -0.0000001229
   34      H       0.6348771964    -4.7116176451    -0.0000002918
   35      H       2.9263089732    -3.7468824508    -0.0000008092
   36      H       4.3978193686    -1.8059895433    -0.0000006254
 ----------------------------------------------------------------
 Molecular Point Group                 C1    NOp =  1
 Largest Abelian Subgroup              C1    NOp =  1
 Nuclear Repulsion Energy =  1841.6391837132 hartrees
 There are       78 alpha and       78 beta electrons
 JobOver = FALSE
 Applying Cartesian multipole field
    Component          Value
    ---------          -----
     (2,0,0)        1.00000E-11
     (0,2,0)        2.00000E-11
     (0,0,2)       -3.00000E-10
 Nucleus-field energy     =     0.0000000874 hartrees
 ENuRep (before)= 1841.6391837132
 ENucField = 0.0000000874
 ENuRep (after) = 1841.6391838006
 Requested basis set is 6-31G(d)
 There are 120 shells and 384 basis functions
 Job number = 2, Threshold = 1.00E-11
Integral type ranges set in mkLRange.C for JobNum: 2  <1-21|1-21>
Symmetry turned off temporarily
Symmetry turned back on
 A cutoff of  1.0D-11 yielded   4764 shell pairs
 There are     54738 function pairs
 Job number = 11, Threshold = 1.00E-11
Integral type ranges set in mkLRange.C for JobNum: 11  <1-21|22-22>
 Smallest overlap matrix eigenvalue = 8.04E-05
 Multipole matrices computed through 2nd order
 Guess MOs from SCF MO coefficient file
 Reading MOs from coefficient file
 Reading MOs from coefficient file

 -----------------------------------------------------------------------
  General SCF calculation program by
  Eric Jon Sundstrom, Paul Horn, Yuezhi Mao, Dmitri Zuev, Alec White,
  David Stuck, Shaama M.S., Shane Yost, Joonho Lee, David Small,
  Daniel Levine, Susi Lehtola, Hugh Burton, Evgeny Epifanovsky
 -----------------------------------------------------------------------
 Hartree-Fock
Finding J and K together
 Job number = 22, Threshold = 1.00E-11
 using 20 threads for integral computing
 -------------------------------------------------------
 OpenMP Integral computing Module                
 Release: version 2.0, May 2017, Q-Chem Inc. Pleasanton 
 -------------------------------------------------------
Integral type ranges set in mkLRange.C for JobNum: 22  <1-21|1-21>
 MakeJK  time:  CPU     112.43 s  wall       5.64 s
 A restricted SCF calculation will be
 performed using DIIS
 SCF converges when DIIS error is below 1.0e-08
 ---------------------------------------
  Cycle       Energy         DIIS error
 ---------------------------------------
Finding J and K together
 Job number = 22, Threshold = 1.00E-11
Integral type ranges set in mkLRange.C for JobNum: 22  <1-21|1-21>
 MakeJK  time:  CPU     112.44 s  wall       5.64 s
    1    -915.9487946493      1.03e-04  
Finding J and K together
 Job number = 22, Threshold = 1.00E-11
Integral type ranges set in mkLRange.C for JobNum: 22  <1-21|1-21>
 MakeJK  time:  CPU     112.46 s  wall       5.64 s
    2    -915.9525416762      1.63e-05  
Finding J and K together
 Job number = 22, Threshold = 1.00E-11
Integral type ranges set in mkLRange.C for JobNum: 22  <1-21|1-21>
 MakeJK  time:  CPU     112.45 s  wall       5.64 s
    3    -915.9525468525      1.30e-05  
Finding J and K together
 Job number = 22, Threshold = 1.00E-11
Integral type ranges set in mkLRange.C for JobNum: 22  <1-21|1-21>
 MakeJK  time:  CPU     112.46 s  wall       5.64 s
    4    -915.9525504500      2.74e-06  
Finding J and K together
 Job number = 22, Threshold = 1.00E-11
Integral type ranges set in mkLRange.C for JobNum: 22  <1-21|1-21>
 MakeJK  time:  CPU     112.49 s  wall       5.64 s
    5    -915.9525509771      1.03e-06  
Finding J and K together
 Job number = 22, Threshold = 1.00E-11
Integral type ranges set in mkLRange.C for JobNum: 22  <1-21|1-21>
 MakeJK  time:  CPU     112.46 s  wall       5.64 s
    6    -915.9525510939      3.81e-07  
Finding J and K together
 Job number = 22, Threshold = 1.00E-11
Integral type ranges set in mkLRange.C for JobNum: 22  <1-21|1-21>
 MakeJK  time:  CPU     112.43 s  wall       5.64 s
    7    -915.9525511092      1.40e-07  
Finding J and K together
 Job number = 22, Threshold = 1.00E-11
Integral type ranges set in mkLRange.C for JobNum: 22  <1-21|1-21>
 MakeJK  time:  CPU     112.47 s  wall       5.64 s
    8    -915.9525511105      2.38e-08  
    9    -915.9525511105      3.72e-09  Convergence criterion met
 ---------------------------------------
 SCF time:   CPU 1019.09s  wall 51.00s 
 SCF   energy in the final basis set =     -915.9525511105
 Total energy in the final basis set =     -915.9525511105
Symmetry turned off temporarily
 
[...]
      XXZZ    -810.2046   XYZZ       0.0000   YYZZ    -810.2046
      XZZZ       0.0002   YZZZ      -0.0001   ZZZZ    -157.5989
 -----------------------------------------------------------------
drvman_main.C: 73: calling DrvMan  Calculating analytic gradient of the SCF energy
drvman.C : 218: Calculating analytic gradient of the SCF energy
drvman.C: 244: calling SCF_Grad for normal SCF gradient
 Job number = 111, Threshold = 1.00E-11
Integral type ranges set in mkLRange.C for JobNum: 11  <1-21|22-22>
Finding J and K together
 ML is being used
 Job number = 122, Threshold = 1.00E-11
Integral type ranges set in mkLRange.C for JobNum: 22  <1-21|1-21>
 MakeJK  time:  CPU     545.01 s  wall      42.57 s
 Gradient of SCF Energy
            1           2           3           4           5           6
    1  -0.0000035  -0.0000020   0.0000012   0.0000035   0.0000021  -0.0000014
    2   0.0000005  -0.0000028  -0.0000032  -0.0000004   0.0000027   0.0000031
    3  -0.0000000  -0.0000000   0.0000000  -0.0000000  -0.0000000   0.0000000
            7           8           9          10          11          12
    1   0.0000078   0.0000048  -0.0000031  -0.0000078  -0.0000046   0.0000029
    2  -0.0000008   0.0000061   0.0000071   0.0000011  -0.0000063  -0.0000072
    3   0.0000000  -0.0000000   0.0000000  -0.0000000   0.0000000   0.0000000
           13          14          15          16          17          18
    1  -0.0000030   0.0000033  -0.0000083   0.0000083  -0.0000051   0.0000048
    2   0.0000076  -0.0000075   0.0000013  -0.0000008  -0.0000064   0.0000066
    3   0.0000000  -0.0000000   0.0000000  -0.0000000  -0.0000000   0.0000000
           19          20          21          22          23          24
    1   0.0000030  -0.0000035   0.0000080  -0.0000081   0.0000052  -0.0000048
    2  -0.0000078   0.0000076  -0.0000012   0.0000009   0.0000064  -0.0000067
    3   0.0000000  -0.0000000   0.0000000   0.0000000  -0.0000000  -0.0000000
           25          26          27          28          29          30
    1  -0.0000005  -0.0000031   0.0000032  -0.0000036   0.0000036  -0.0000005
    2  -0.0000039   0.0000024  -0.0000024  -0.0000015   0.0000016  -0.0000039
    3  -0.0000000   0.0000000  -0.0000000   0.0000000   0.0000000  -0.0000000
           31          32          33          34          35          36
    1   0.0000005   0.0000031  -0.0000032   0.0000036  -0.0000036   0.0000005
    2   0.0000039  -0.0000024   0.0000023   0.0000015  -0.0000016   0.0000039
    3   0.0000000   0.0000000   0.0000000  -0.0000000   0.0000000   0.0000000
 Max gradient component =       8.313E-06
 RMS gradient           =       3.648E-06
drvman.C: 248: out of SCF_Grad for normal SCF gradient
 Gradient time:  CPU 550.16 s  wall 43.26 s
 ------------------------------------------------------------------------------
                     drvman        : Timing summary (seconds)
 ------------------------------------------------------------------------------
     job step          cpu (% of tot)      sys (% of tot)     wall (% of tot)
 ------------------------------------------------------------------------------
 ------------------------------------------------------------------------------
   Grand Totals     0.5502E+03          0.3900E-04          0.4326E+02
 ------------------------------------------------------------------------------
drvman_main.C: 77: out of DrvMan  Geometry Optimization Parameters
   NAtoms,    NIC,     NZ,  NCons,   NDum,   NFix, NCnnct, MaxDiis
       36     306       0       0       0       0       0       0

 Cartesian Hessian Update
 Hessian Updated using BFGS Update


** GEOMETRY OPTIMIZATION IN DELOCALIZED INTERNAL COORDINATES **
   Searching for a Minimum

   Optimization Cycle:   5

                       Coordinates (Angstroms)
     ATOM                X               Y               Z
      1  C         1.4153204977   -0.1779936846   -0.0000004870
      2  C         0.8618072718    1.1367062792   -0.0000003715
      3  C        -0.5535132803    1.3146998984   -0.0000002171
      4  C        -1.4153202638    0.1779934210   -0.0000003248
      5  C        -0.8618069349   -1.1367068142   -0.0000003270
      6  C         0.5535133358   -1.3147003925   -0.0000003886
      7  C         2.8020097263   -0.3523864933   -0.0000005624
      8  C         1.7061804444    2.2504179126   -0.0000003005
      9  C        -1.0958292142    2.6028043596   -0.0000000345
     10  C        -2.8020094890    0.3523863033   -0.0000002359
     11  C        -1.7061801350   -2.2504184258   -0.0000001150
     12  C         1.0958292956   -2.6028048569   -0.0000004425
     13  C         3.6410715168    0.7986152171   -0.0000003256
     14  C         3.1158295456    2.0461654629   -0.0000001883
     15  C         1.1289144232    3.5525680057   -0.0000000661
     16  C        -0.2141164808    3.7214703049   -0.0000000716
     17  C        -2.5121568693    2.7539524359    0.0000000492
     18  C        -3.3299461583    1.6753044811    0.0000000000
     19  C        -3.6410714771   -0.7986157404   -0.0000000218
     20  C        -3.1158296191   -2.0461657845   -0.0000000673
     21  C        -1.1289143457   -3.5525681955    0.0000000745
     22  C         0.2141168605   -3.7214705553   -0.0000001822
     23  C         2.5121573339   -2.7539528765   -0.0000008013
     24  C         3.3299464874   -1.6753050584   -0.0000008231
     25  H         4.7080518622    0.6608333348   -0.0000002574
     26  H         3.7629555194    2.9056181374    0.0000001482
     27  H         1.7817274604    4.4077089755   -0.0000001207
     28  H        -0.6348614985    4.7116241036    0.0000000491
     29  H        -2.9263243405    3.7468755026    0.0000003066
     30  H        -4.3978169732    1.8060057885   -0.0000000100
     31  H        -4.7080518044   -0.6608336333    0.0000001519
     32  H        -3.7629554636   -2.9056185560    0.0000002941
     33  H        -1.7817272536   -4.4077092678    0.0000002745
     34  H         0.6348617327   -4.7116244207   -0.0000003135
     35  H         2.9263246143   -3.7468760327   -0.0000008322
     36  H         4.3978173337   -1.8060061194   -0.0000009498
   Point Group: c1    Number of degrees of freedom:   102


   Energy is   -915.952551524

 Hessian Updated using BFGS Update

 98 Hessian modes will be used to form the next step
  Hessian Eigenvalues:
     0.021042    0.021042    0.021044    0.021071    0.021071    0.021297
     0.021332    0.021332    0.021450    0.021498    0.021551    0.021551
     0.021560    0.021560    0.021560    0.021977    0.021994    0.021994
     0.022025    0.022025    0.022032    0.022037    0.022037    0.022040
     0.022040    0.022044    0.022044    0.022155    0.022158    0.022158
     0.022162    0.022163    0.022164    0.149534    0.160000    0.160000
     0.160000    0.160000    0.160000    0.160000    0.160000    0.160000
     0.160000    0.160000    0.223455    0.225550    0.225550    0.226620
     0.226621    0.228034    0.242941    0.244318    0.244318    0.246568
     0.246568    0.250000    0.250000    0.269310    0.329936    0.329937
     0.355751    0.355752    0.355754    0.355754    0.355755    0.355755
     0.355756    0.355756    0.355757    0.355757    0.361558    0.371547
     0.383751    0.383755    0.388719    0.418850    0.418851    0.419237
     0.420213    0.420215    0.435576    0.436442    0.436447    0.444587
     0.444588    0.445870    0.445878    0.445883    0.446014    0.446196
     0.446585    0.446589    0.452396    0.452401    0.452462    0.452502
     0.452507    0.488230

 Minimum Search - Taking Simple RFO Step
 Searching for Lamda that Minimizes Along All modes
 Value Taken    Lamda =   0.00000000
 Step Taken.  Stepsize is  0.000132

                             Maximum     Tolerance    Cnvgd?
         Gradient           0.000017      0.000300     YES
         Displacement       0.000089      0.001200     YES
         Energy change     -0.000000      0.000001     YES

 Final energy is   -915.952551523729     


 ******************************
 **  OPTIMIZATION CONVERGED  **
 ******************************

                       Coordinates (Angstroms)
     ATOM                X               Y               Z
      1  C         1.4153204977   -0.1779936846   -0.0000004870
      2  C         0.8618072718    1.1367062792   -0.0000003715
      3  C        -0.5535132803    1.3146998984   -0.0000002171
      4  C        -1.4153202638    0.1779934210   -0.0000003248
      5  C        -0.8618069349   -1.1367068142   -0.0000003270
      6  C         0.5535133358   -1.3147003925   -0.0000003886
      7  C         2.8020097263   -0.3523864933   -0.0000005624
      8  C         1.7061804444    2.2504179126   -0.0000003005
      9  C        -1.0958292142    2.6028043596   -0.0000000345
     10  C        -2.8020094890    0.3523863033   -0.0000002359
     11  C        -1.7061801350   -2.2504184258   -0.0000001150
     12  C         1.0958292956   -2.6028048569   -0.0000004425
     13  C         3.6410715168    0.7986152171   -0.0000003256
     14  C         3.1158295456    2.0461654629   -0.0000001883
     15  C         1.1289144232    3.5525680057   -0.0000000661
     16  C        -0.2141164808    3.7214703049   -0.0000000716
     17  C        -2.5121568693    2.7539524359    0.0000000492
     18  C        -3.3299461583    1.6753044811    0.0000000000
     19  C        -3.6410714771   -0.7986157404   -0.0000000218
     20  C        -3.1158296191   -2.0461657845   -0.0000000673
     21  C        -1.1289143457   -3.5525681955    0.0000000745
     22  C         0.2141168605   -3.7214705553   -0.0000001822
     23  C         2.5121573339   -2.7539528765   -0.0000008013
     24  C         3.3299464874   -1.6753050584   -0.0000008231
     25  H         4.7080518622    0.6608333348   -0.0000002574
     26  H         3.7629555194    2.9056181374    0.0000001482
     27  H         1.7817274604    4.4077089755   -0.0000001207
     28  H        -0.6348614985    4.7116241036    0.0000000491
     29  H        -2.9263243405    3.7468755026    0.0000003066
     30  H        -4.3978169732    1.8060057885   -0.0000000100
     31  H        -4.7080518044   -0.6608336333    0.0000001519
     32  H        -3.7629554636   -2.9056185560    0.0000002941
     33  H        -1.7817272536   -4.4077092678    0.0000002745
     34  H         0.6348617327   -4.7116244207   -0.0000003135
     35  H         2.9263246143   -3.7468760327   -0.0000008322
     36  H         4.3978173337   -1.8060061194   -0.0000009498

Z-matrix Print:
$molecule
0 1
C 
C  1 1.397612
C  2 1.424370 1 118.923452
H  3 1.075840 2 118.733417 1 -180.000000 0
C  3 1.353610 2 121.076551 1 0.000000 0
H  5 1.075840 3 120.190033 2 180.000000 0
C  5 1.424370 3 121.076549 2 -0.000000 0
C  7 1.397612 5 118.923449 3 -0.000000 0
C  7 1.424370 5 122.153105 3 180.000000 0
H  9 1.075840 7 118.733404 5 -0.000000 0
C  9 1.353610 7 121.076553 5 180.000000 0
H  11 1.075840 9 120.190047 7 -180.000000 0
C  11 1.424370 9 121.076551 7 -0.000000 0
C  13 1.397612 11 118.923448 9 0.000000 0
C  13 1.424370 11 122.153102 9 -180.000000 0
H  15 1.075840 13 118.733413 11 -0.000000 0
C  15 1.353610 13 121.076548 11 -180.000000 0
H  17 1.075840 15 120.190036 13 -180.000000 0
C  17 1.424370 15 121.076551 13 0.000000 0
C  19 1.397612 17 118.923450 15 -0.000000 0
C  19 1.424370 17 122.153102 15 180.000000 0
H  21 1.075840 19 118.733403 17 0.000000 0
C  21 1.353610 19 121.076555 17 180.000000 0
H  23 1.075840 21 120.190044 19 -180.000000 0
C  23 1.424370 21 121.076551 19 0.000000 0
C  25 1.397612 23 118.923445 21 -0.000000 0
C  25 1.424370 23 122.153104 21 -180.000000 0
H  27 1.075840 25 118.733420 23 -0.000000 0
C  27 1.353610 25 121.076550 23 180.000000 0
H  29 1.075840 27 120.190035 25 -180.000000 0
C  29 1.424370 27 121.076548 25 -0.000000 0
C  31 1.397612 29 118.923451 27 0.000000 0
C  31 1.424370 29 122.153101 27 180.000000 0
H  33 1.075840 31 118.733402 29 0.000000 0
C  33 1.353610 31 121.076552 29 180.000000 0
H  35 1.075840 33 120.190045 31 180.000000 0
$end

Symmetry turned off temporarily
 
 --------------------------------------------------------------
 
                    Orbital Energies (a.u.)
 --------------------------------------------------------------
 
 Alpha MOs
 -- Occupied --
-11.244 -11.243 -11.243 -11.243 -11.243 -11.243 -11.242 -11.242
-11.242 -11.241 -11.241 -11.241 -11.236 -11.236 -11.236 -11.236
-11.236 -11.236 -11.234 -11.234 -11.234 -11.234 -11.234 -11.234
 -1.215  -1.170  -1.170  -1.110  -1.110  -1.086  -1.052  -1.029
 -1.011  -1.011  -0.971  -0.971  -0.861  -0.861  -0.860  -0.860
 -0.849  -0.771  -0.765  -0.737  -0.737  -0.724  -0.701  -0.651
 -0.651  -0.633  -0.633  -0.631  -0.631  -0.595  -0.586  -0.586
 -0.580  -0.576  -0.565  -0.565  -0.531  -0.525  -0.520  -0.520
 -0.509  -0.508  -0.508  -0.456  -0.456  -0.444  -0.444  -0.417
 -0.365  -0.342  -0.329  -0.329  -0.257  -0.257
 -- Virtual --
  0.072   0.072   0.129   0.129   0.147   0.188   0.234   0.238
  0.252   0.252   0.272   0.272   0.281   0.281   0.291   0.300
  0.316   0.316   0.345   0.345   0.367   0.390   0.398   0.398
  0.430   0.430   0.436   0.456   0.456   0.480   0.480   0.480
  0.480   0.492   0.522   0.527   0.527   0.537   0.553   0.553
  0.636   0.649   0.678   0.692   0.711   0.711   0.716   0.723
  0.725   0.743   0.743   0.746   0.746   0.746   0.746   0.778
  0.778   0.780   0.780   0.781   0.794   0.795   0.813   0.813
  0.815   0.816   0.816   0.819   0.825   0.827   0.827   0.833
  0.837   0.837   0.849   0.851   0.851   0.865   0.865   0.885
  0.885   0.890   0.890   0.933   0.941   0.949   0.949   0.964
  0.964   0.964   1.016   1.033   1.067   1.067   1.093   1.093
  1.093   1.093   1.109   1.117   1.122   1.122   1.122   1.129
  1.129   1.137   1.143   1.143   1.184   1.184   1.199   1.206
  1.206   1.215   1.215   1.224   1.228   1.228   1.279   1.279
  1.280   1.285   1.292   1.302   1.303   1.303   1.365   1.392
  1.419   1.419   1.422   1.424   1.424   1.452   1.462   1.495
  1.495   1.507   1.507   1.524   1.524   1.542   1.542   1.560
  1.560   1.574   1.612   1.624   1.677   1.677   1.680   1.680
  1.698   1.700   1.701   1.736   1.748   1.748   1.756   1.756
  1.761   1.767   1.767   1.771   1.796   1.796   1.802   1.802
  1.911   1.911   1.936   1.936   1.979   1.992   2.011   2.019
  2.024   2.070   2.070   2.075   2.075   2.109   2.109   2.114
  2.144   2.144   2.158   2.158   2.195   2.202   2.224   2.224
  2.226   2.250   2.250   2.268   2.270   2.270   2.270   2.284
  2.284   2.323   2.328   2.328   2.339   2.339   2.369   2.392
  2.404   2.404   2.414   2.480   2.480   2.499   2.499   2.560
  2.560   2.575   2.587   2.587   2.589   2.594   2.594   2.600
  2.603   2.603   2.625   2.641   2.667   2.667   2.673   2.673
  2.691   2.702   2.702   2.742   2.742   2.745   2.749   2.783
  2.783   2.793   2.821   2.922   2.922   2.996   2.996   3.000
  3.000   3.058   3.060   3.060   3.065   3.099   3.105   3.108
  3.116   3.116   3.176   3.179   3.179   3.203   3.203   3.204
  3.204   3.264   3.291   3.291   3.328   3.380   3.389   3.389
  3.417   3.440   3.440   3.590   3.721   3.721   3.830   3.830
  3.985   4.083   4.521   4.525   4.525   4.531   4.537   4.537
  4.558   4.587   4.587   4.587   4.587   4.587   4.692   4.692
  4.774   4.778   4.778   4.834   4.912   4.968   4.968   5.196
  5.196   5.478
 --------------------------------------------------------------
 
          Ground-State Mulliken Net Atomic Charges

     Atom                 Charge (a.u.)
  ----------------------------------------
      1 C                    -0.026901
      2 C                    -0.026901
      3 C                    -0.026901
      4 C                    -0.026901
      5 C                    -0.026901
      6 C                    -0.026901
      7 C                     0.017540
      8 C                     0.017540
      9 C                     0.017540
     10 C                     0.017540
     11 C                     0.017540
     12 C                     0.017540
     13 C                    -0.204648
     14 C                    -0.204648
     15 C                    -0.204648
     16 C                    -0.204648
     17 C                    -0.204648
     18 C                    -0.204648
     19 C                    -0.204648
     20 C                    -0.204648
     21 C                    -0.204648
     22 C                    -0.204648
     23 C                    -0.204648
     24 C                    -0.204648
     25 H                     0.209328
     26 H                     0.209328
     27 H                     0.209328
     28 H                     0.209328
     29 H                     0.209328
     30 H                     0.209328
     31 H                     0.209328
     32 H                     0.209328
     33 H                     0.209328
     34 H                     0.209328
     35 H                     0.209328
     36 H                     0.209328
  ----------------------------------------
  Sum of atomic charges =    -0.000000

 -----------------------------------------------------------------
                    Cartesian Multipole Moments
 -----------------------------------------------------------------
    Charge (ESU x 10^10)
                 0.0000
    Dipole Moment (Debye)
         X      -0.0000      Y       0.0000      Z       0.0000
       Tot       0.0000
    Quadrupole Moments (Debye-Ang)
        XX    -115.8778     XY      -0.0000     YY    -115.8778
        XZ      -0.0000     YZ       0.0000     ZZ    -145.8985
    Octopole Moments (Debye-Ang^2)
       XXX      -0.0000    XXY       0.0000    XYY      -0.0000
       YYY       0.0001    XXZ       0.0000    XYZ       0.0000
       YYZ       0.0000    XZZ      -0.0000    YZZ       0.0000
       ZZZ       0.0001
    Hexadecapole Moments (Debye-Ang^3)
      XXXX   -3736.9509   XXXY       0.0000   XXYY   -1245.6503
      XYYY       0.0000   YYYY   -3736.9508   XXXZ       0.0001
      XXYZ      -0.0000   XYYZ       0.0000   YYYZ      -0.0000
      XXZZ    -810.2046   XYZZ       0.0000   YYZZ    -810.2046
      XZZZ       0.0002   YZZZ      -0.0001   ZZZZ    -157.5989
 -----------------------------------------------------------------
 JobOver = TRUE
Archival summary:
1\1\tiger-i26c1n15\OPT\HF\6-31G*\2412\xingz\FriJun800:48:372018FriJun800:48:372018\0\\#,OPT,HF,6-31G*,\\0,1\C\C,1,1.39761\C,2,1.42437,1,118.923\H,3,1.07584,2,118.733,1,-180,0\C,3,1.35361,2,121.077,1,0,0\H,5,1.07584,3,120.19,2,180,0\C,5,1.42437,3,121.077,2,-0,0\C,7,1.39761,5,118.923,3,-0,0\C,7,1.42437,5,122.153,3,180,0\H,9,1.07584,7,118.733,5,-0,0\C,9,1.35361,7,121.077,5,180,0\H,11,1.07584,9,120.19,7,-180,0\C,11,1.42437,9,121.077,7,-0,0\C,13,1.39761,11,118.923,9,0,0\C,13,1.42437,11,122.153,9,-180,0\H,15,1.07584,13,118.733,11,-0,0\C,15,1.35361,13,121.077,11,-180,0\H,17,1.07584,15,120.19,13,-180,0\C,17,1.42437,15,121.077,13,0,0\C,19,1.39761,17,118.923,15,-0,0\C,19,1.42437,17,122.153,15,180,0\H,21,1.07584,19,118.733,17,0,0\C,21,1.35361,19,121.077,17,180,0\H,23,1.07584,21,120.19,19,-180,0\C,23,1.42437,21,121.077,19,0,0\C,25,1.39761,23,118.923,21,-0,0\C,25,1.42437,23,122.153,21,-180,0\H,27,1.07584,25,118.733,23,-0,0\C,27,1.35361,25,121.077,23,180,0\H,29,1.07584,27,120.19,25,-180,0\C,29,1.42437,27,121.077,25,-0,0\C,31,1.39761,29,118.923,27,0,0\C,31,1.42437,29,122.153,27,180,0\H,33,1.07584,31,118.733,29,0,0\C,33,1.35361,31,121.077,29,180,0\H,35,1.07584,33,120.19,31,180,0\\HF=-915.952552\\@

 Total job time:  499.72s(wall), 8292.57s(cpu) 
 Fri Jun  8 00:48:37 2018

        *************************************************************
        *                                                           *
        *  Thank you very much for using Q-Chem.  Have a nice day.  *
        *                                                           *
        *************************************************************


*** MISSION COMPLETED -- STARFLEET OUT ***

