 
             +---------------------------------------------------+
             |                                                   |
             |                   WANNIER90                       |
             |                                                   |
             +---------------------------------------------------+
             |                                                   |
             |        Welcome to the Maximally-Localized         |
             |        Generalized Wannier Functions code         |
             |            http://www.wannier.org                 |
             |                                                   |
             |  Wannier90 v2.x Authors:                          |
             |    Arash A. Mostofi  (Imperial College London)    |
             |    Giovanni Pizzi    (EPFL)                       |
             |    Ivo Souza         (Universidad del Pais Vasco) |
             |    Jonathan R. Yates (University of Oxford)       |
             |                                                   |
             |  Wannier90 Contributors:                          |
             |    Young-Su Lee       (KIST, S. Korea)            |
             |    Matthew Shelley    (Imperial College London)   |
             |    Nicolas Poilvert   (Penn State University)     |
             |    Raffaello Bianco   (Paris 6 and CNRS)          |
             |    Gabriele Sclauzero (ETH Zurich)                |
             |    David Strubbe (MIT, USA)                       |
             |    Rei Sakuma (Lund University, Sweden)           |
             |    Yusuke Nomura (U. Tokyo, Japan)                |
             |    Takashi Koretsune (Riken, Japan)               |
             |    Yoshiro Nohara (ASMS Co. Ltd., Japan)          |
             |    Ryotaro Arita (Riken, Japan)                   |
             |    Lorenzo Paulatto (UPMC Paris)                  |
             |    Florian Thole (ETH Zurich)                     |
             |    Pablo Garcia Fernandez (Unican, Spain)         |
             |    Dominik Gresch (ETH Zurich)                    |
             |    Samuel Ponce (University of Oxford)            |
             |    Marco Gibertini (EPFL)                         |
             |    Christian Stieger (ETHZ, CH)                   |
             |    Stepan Tsirkin (Universidad del Pais Vasco)    |
             |                                                   |
             |  Wannier77 Authors:                               |
             |    Nicola Marzari    (EPFL)                       |
             |    Ivo Souza         (Universidad del Pais Vasco) |
             |    David Vanderbilt  (Rutgers University)         |
             |                                                   |
             |  Please cite                                      |
             |                                                   |
             |  [ref] "An updated version of Wannier90:          |
             |        A Tool for Obtaining Maximally Localised   |
             |        Wannier Functions", A. A. Mostofi,         |
             |        J. R. Yates, G. Pizzi, Y. S. Lee,          |
             |        I. Souza, D. Vanderbilt and N. Marzari,    |
             |        Comput. Phys. Commun. 185, 2309 (2014)     |
             |        http://dx.doi.org/10.1016/j.cpc.2014.05.003|
             |                                                   |
             |  in any publications arising from the use of      |
             |  this code. For the method please cite            |
             |                                                   |
             |  [ref] "Maximally Localized Generalised Wannier   |
             |         Functions for Composite Energy Bands"     |
             |         N. Marzari and D. Vanderbilt              |
             |         Phys. Rev. B 56 12847 (1997)              |
             |                                                   |
             |  [ref] "Maximally Localized Wannier Functions     |
             |         for Entangled Energy Bands"               |
             |         I. Souza, N. Marzari and D. Vanderbilt    |
             |         Phys. Rev. B 65 035109 (2001)             |
             |                                                   |
             |                                                   |
             | Copyright (c) 1996-2017                           |
             |        Arash A. Mostofi, Jonathan R. Yates,       |
             |        Young-Su Lee, Giovanni Pizzi, Ivo Souza,   |
             |        David Vanderbilt and Nicola Marzari        |
             |                                                   |
             |        Release: 2.1.0   13th January 2017         |
             |                                                   |
             | This program is free software; you can            |
             | redistribute it and/or modify it under the terms  |
             | of the GNU General Public License as published by |
             | the Free Software Foundation; either version 2 of |
             | the License, or (at your option) any later version|
             |                                                   |
             | This program is distributed in the hope that it   |
             | will be useful, but WITHOUT ANY WARRANTY; without |
             | even the implied warranty of MERCHANTABILITY or   |
             | FITNESS FOR A PARTICULAR PURPOSE. See the GNU     |
             | General Public License for more details.          |
             |                                                   |
             | You should have received a copy of the GNU General|
             | Public License along with this program; if not,   |
             | write to the Free Software Foundation, Inc.,      |
             | 675 Mass Ave, Cambridge, MA 02139, USA.           |
             |                                                   |
             +---------------------------------------------------+
             |    Execution started on 23Feb2018 at 02:58:26     |
             +---------------------------------------------------+
 
 ******************************************************************************
 * -> Using CODATA 2006 constant values                                       *
 *    (http://physics.nist.gov/cuu/Constants/index.html)                      *
 * -> Using Bohr value from CODATA                                            *
 ******************************************************************************
 

 Wannier90 is running in LIBRARY MODE

 Setting up k-point neighbours...

 
                                    ------
                                    SYSTEM
                                    ------
 
                              Lattice Vectors (Ang)
                    a_1    22.000000   0.000000   0.000000
                    a_2     0.000000  10.000000   0.000000
                    a_3     0.000000   0.000000  10.000000
 
                   Unit Cell Volume:    2200.00000  (Ang^3)
 
                        Reciprocal-Space Vectors (Ang^-1)
                    b_1     0.285599   0.000000   0.000000
                    b_2     0.000000   0.628319   0.000000
                    b_3     0.000000   0.000000   0.628319
  
 *----------------------------------------------------------------------------*
 |   Site       Fractional Coordinate          Cartesian Coordinate (Ang)     |
 +----------------------------------------------------------------------------+
 | H    1   0.44955   0.50000   0.50000   |    9.89000   5.00000   5.00000    |
 | H    2   0.48318   0.50000   0.50000   |   10.63000   5.00000   5.00000    |
 | H    3   0.51682   0.50000   0.50000   |   11.37000   5.00000   5.00000    |
 | H    4   0.55045   0.50000   0.50000   |   12.11000   5.00000   5.00000    |
 *----------------------------------------------------------------------------*
  
                                -----------
                                PROJECTIONS
                                -----------
  
 +----------------------------------------------------------------------------+
 |     Frac. Coord.   l mr  r        z-axis               x-axis          Z/a |
 +----------------------------------------------------------------------------+
 |  0.45  0.50  0.50  0  1  1  0.000  0.000  1.000  1.000  0.000  0.000   1.0 |
 |  0.48  0.50  0.50  0  1  1  0.000  0.000  1.000  1.000  0.000  0.000   1.0 |
 |  0.52  0.50  0.50  0  1  1  0.000  0.000  1.000  1.000  0.000  0.000   1.0 |
 |  0.55  0.50  0.50  0  1  1  0.000  0.000  1.000  1.000  0.000  0.000   1.0 |
 +----------------------------------------------------------------------------+
  
                                ------------
                                K-POINT GRID
                                ------------
  
             Grid size =  1 x  1 x  1      Total points =    1
  
 *----------------------------------------------------------------------------*
 | k-point      Fractional Coordinate        Cartesian Coordinate (Ang^-1)    |
 +----------------------------------------------------------------------------+
 |     1    0.00000   0.00000   0.00000   |    0.00000   0.00000   0.00000    |
 *----------------------------------------------------------------------------*
  
  
 *---------------------------------- MAIN ------------------------------------*
 |  Number of Wannier Functions               :                 4             |
 |  Number of input Bloch states              :                 4             |
 |  Output verbosity (1=low, 5=high)          :                 2             |
 |  Timing Level (1=low, 5=high)              :                 1             |
 |  Optimisation (0=memory, 3=speed)          :                 3             |
 |  Length Unit                               :               Ang             |
 |  Post-processing setup (write *.nnkp)      :                 F             |
 |  Using Gamma-only branch of algorithms     :                 T             |
 *----------------------------------------------------------------------------*
 *------------------------------- WANNIERISE ---------------------------------*
 |  Total number of iterations                :               100             |
 |  Number of CG steps before reset           :                 5             |
 |  Trial step length for line search         :             2.000             |
 |  Convergence tolerence                     :         0.100E-09             |
 |  Convergence window                        :                 5             |
 |  Iterations between writing output         :                 1             |
 |  Iterations between backing up to disk     :               100             |
 |  Write r^2_nm to file                      :                 F             |
 |  Write xyz WF centres to file              :                 F             |
 |  Write on-site energies <0n|H|0n> to file  :                 F             |
 |  Use guiding centre to control phases      :                 T             |
 |  Use phases for initial projections        :                 F             |
 |  Iterations before starting guiding centres:                 0             |
 |  Iterations between using guiding centres  :                 1             |
 *----------------------------------------------------------------------------*
 Time to read parameters        0.005 (sec)

 *---------------------------------- K-MESH ----------------------------------*
 +----------------------------------------------------------------------------+
 |                    Distance to Nearest-Neighbour Shells                    |
 |                    ------------------------------------                    |
 |          Shell             Distance (Ang^-1)          Multiplicity         |
 |          -----             -----------------          ------------         |
 |             1                   0.285599                      2            |
 |             2                   0.571199                      2            |
 |             3                   0.628319                      4            |
 |             4                   0.690182                      8            |
 |             5                   0.849148                      8            |
 |             6                   0.856798                      2            |
 |             7                   0.888577                      4            |
 |             8                   0.933346                      8            |
 |             9                   1.056332                      8            |
 |            10                   1.062491                      8            |
 |            11                   1.142397                      2            |
 |            12                   1.234371                      8            |
 +----------------------------------------------------------------------------+
 | The b-vectors are chosen automatically                                     |
 | Shell:  1 w_b    6.1299316      (Ang^2)                                    |
 | Shell:  1 w_b    6.1299316      (Ang^2)                                    |
 | Shell:  2 w_b    1.2665148      (Ang^2)                                    |
 | The following shells are used:   1,  3                                     |
 +----------------------------------------------------------------------------+
 |                        Shell   # Nearest-Neighbours                        |
 |                        -----   --------------------                        |
 |                          1               2                                 |
 |                          3               4                                 |
 +----------------------------------------------------------------------------+
 | Completeness relation is fully satisfied [Eq. (B1), PRB 56, 12847 (1997)]  |
 +----------------------------------------------------------------------------+
 |                  b_k Vectors (Ang^-1) and Weights (Ang^2)                  |
 |                  ----------------------------------------                  |
 |            No.         b_k(x)      b_k(y)      b_k(z)        w_b           |
 |            ---        --------------------------------     --------        |
 |             1         0.285599    0.000000    0.000000     6.129932        |
 |             2        -0.285599    0.000000    0.000000     6.129932        |
 |             3         0.000000    0.628319    0.000000     1.266515        |
 |             4         0.000000    0.000000    0.628319     1.266515        |
 |             5         0.000000    0.000000   -0.628319     1.266515        |
 |             6         0.000000   -0.628319    0.000000     1.266515        |
 +----------------------------------------------------------------------------+
 |                           b_k Directions (Ang^-1)                          |
 |                           -----------------------                          |
 |            No.           x           y           z                         |
 |            ---        --------------------------------                     |
 |             1         0.285599    0.000000    0.000000                     |
 |             2         0.000000    0.628319    0.000000                     |
 |             3         0.000000    0.000000    0.628319                     |
 +----------------------------------------------------------------------------+
  
 +----------------------------------------------------------------------------+
 |        Gamma-point: number of the b-vectors is reduced by half             |
 +----------------------------------------------------------------------------+
 |                  b_k Vectors (Ang^-1) and Weights (Ang^2)                  |
 |                  ----------------------------------------                  |
 |            No.         b_k(x)      b_k(y)      b_k(z)        w_b           |
 |            ---        --------------------------------     --------        |
 |             1         0.285599    0.000000    0.000000    12.259863        |
 |             2         0.000000    0.628319    0.000000     2.533030        |
 |             3         0.000000    0.000000    0.628319     2.533030        |
 +----------------------------------------------------------------------------+
  
 Time to write kmesh            0.013 (sec)

 Finished setting up k-point neighbours.

 Exiting wannier_setup in wannier90 02:58:26 

 Resuming Wannier90 at 02:59:01 

 
                                    ------
                                    SYSTEM
                                    ------
 
                              Lattice Vectors (Ang)
                    a_1    22.000000   0.000000   0.000000
                    a_2     0.000000  10.000000   0.000000
                    a_3     0.000000   0.000000  10.000000
 
                   Unit Cell Volume:    2200.00000  (Ang^3)
 
                        Reciprocal-Space Vectors (Ang^-1)
                    b_1     0.285599   0.000000   0.000000
                    b_2     0.000000   0.628319   0.000000
                    b_3     0.000000   0.000000   0.628319
  
 *----------------------------------------------------------------------------*
 |   Site       Fractional Coordinate          Cartesian Coordinate (Ang)     |
 +----------------------------------------------------------------------------+
 | H    1   0.44955   0.50000   0.50000   |    9.89000   5.00000   5.00000    |
 | H    2   0.48318   0.50000   0.50000   |   10.63000   5.00000   5.00000    |
 | H    3   0.51682   0.50000   0.50000   |   11.37000   5.00000   5.00000    |
 | H    4   0.55045   0.50000   0.50000   |   12.11000   5.00000   5.00000    |
 *----------------------------------------------------------------------------*
  
                                -----------
                                PROJECTIONS
                                -----------
  
 +----------------------------------------------------------------------------+
 |     Frac. Coord.   l mr  r        z-axis               x-axis          Z/a |
 +----------------------------------------------------------------------------+
 |  0.45  0.50  0.50  0  1  1  0.000  0.000  1.000  1.000  0.000  0.000   1.0 |
 |  0.48  0.50  0.50  0  1  1  0.000  0.000  1.000  1.000  0.000  0.000   1.0 |
 |  0.52  0.50  0.50  0  1  1  0.000  0.000  1.000  1.000  0.000  0.000   1.0 |
 |  0.55  0.50  0.50  0  1  1  0.000  0.000  1.000  1.000  0.000  0.000   1.0 |
 +----------------------------------------------------------------------------+
  
                                ------------
                                K-POINT GRID
                                ------------
  
             Grid size =  1 x  1 x  1      Total points =    1
  
 *----------------------------------------------------------------------------*
 | k-point      Fractional Coordinate        Cartesian Coordinate (Ang^-1)    |
 +----------------------------------------------------------------------------+
 |     1    0.00000   0.00000   0.00000   |    0.00000   0.00000   0.00000    |
 *----------------------------------------------------------------------------*
  
  
 *---------------------------------- MAIN ------------------------------------*
 |  Number of Wannier Functions               :                 4             |
 |  Number of input Bloch states              :                 4             |
 |  Output verbosity (1=low, 5=high)          :                 2             |
 |  Timing Level (1=low, 5=high)              :                 1             |
 |  Optimisation (0=memory, 3=speed)          :                 3             |
 |  Length Unit                               :               Ang             |
 |  Post-processing setup (write *.nnkp)      :                 F             |
 |  Using Gamma-only branch of algorithms     :                 T             |
 *----------------------------------------------------------------------------*
 *------------------------------- WANNIERISE ---------------------------------*
 |  Total number of iterations                :               100             |
 |  Number of CG steps before reset           :                 5             |
 |  Trial step length for line search         :             2.000             |
 |  Convergence tolerence                     :         0.100E-09             |
 |  Convergence window                        :                 5             |
 |  Iterations between writing output         :                 1             |
 |  Iterations between backing up to disk     :               100             |
 |  Write r^2_nm to file                      :                 F             |
 |  Write xyz WF centres to file              :                 F             |
 |  Write on-site energies <0n|H|0n> to file  :                 F             |
 |  Use guiding centre to control phases      :                 T             |
 |  Use phases for initial projections        :                 F             |
 |  Iterations before starting guiding centres:                 0             |
 |  Iterations between using guiding centres  :                 1             |
 *----------------------------------------------------------------------------*
 Time to read parameters        0.020 (sec)

 *---------------------------------- K-MESH ----------------------------------*
 +----------------------------------------------------------------------------+
 |                    Distance to Nearest-Neighbour Shells                    |
 |                    ------------------------------------                    |
 |          Shell             Distance (Ang^-1)          Multiplicity         |
 |          -----             -----------------          ------------         |
 |             1                   0.285599                      2            |
 |             2                   0.571199                      2            |
 |             3                   0.628319                      4            |
 |             4                   0.690182                      8            |
 |             5                   0.849148                      8            |
 |             6                   0.856798                      2            |
 |             7                   0.888577                      4            |
 |             8                   0.933346                      8            |
 |             9                   1.056332                      8            |
 |            10                   1.062491                      8            |
 |            11                   1.142397                      2            |
 |            12                   1.234371                      8            |
 +----------------------------------------------------------------------------+
 | The b-vectors are chosen automatically                                     |
 | Shell:  1 w_b    6.1299316      (Ang^2)                                    |
 | Shell:  1 w_b    6.1299316      (Ang^2)                                    |
 | Shell:  2 w_b    1.2665148      (Ang^2)                                    |
 | The following shells are used:   1,  3                                     |
 +----------------------------------------------------------------------------+
 |                        Shell   # Nearest-Neighbours                        |
 |                        -----   --------------------                        |
 |                          1               2                                 |
 |                          3               4                                 |
 +----------------------------------------------------------------------------+
 | Completeness relation is fully satisfied [Eq. (B1), PRB 56, 12847 (1997)]  |
 +----------------------------------------------------------------------------+
 |                  b_k Vectors (Ang^-1) and Weights (Ang^2)                  |
 |                  ----------------------------------------                  |
 |            No.         b_k(x)      b_k(y)      b_k(z)        w_b           |
 |            ---        --------------------------------     --------        |
 |             1         0.285599    0.000000    0.000000     6.129932        |
 |             2        -0.285599    0.000000    0.000000     6.129932        |
 |             3         0.000000    0.628319    0.000000     1.266515        |
 |             4         0.000000    0.000000    0.628319     1.266515        |
 |             5         0.000000    0.000000   -0.628319     1.266515        |
 |             6         0.000000   -0.628319    0.000000     1.266515        |
 +----------------------------------------------------------------------------+
 |                           b_k Directions (Ang^-1)                          |
 |                           -----------------------                          |
 |            No.           x           y           z                         |
 |            ---        --------------------------------                     |
 |             1         0.285599    0.000000    0.000000                     |
 |             2         0.000000    0.628319    0.000000                     |
 |             3         0.000000    0.000000    0.628319                     |
 +----------------------------------------------------------------------------+
  
 +----------------------------------------------------------------------------+
 |        Gamma-point: number of the b-vectors is reduced by half             |
 +----------------------------------------------------------------------------+
 |                  b_k Vectors (Ang^-1) and Weights (Ang^2)                  |
 |                  ----------------------------------------                  |
 |            No.         b_k(x)      b_k(y)      b_k(z)        w_b           |
 |            ---        --------------------------------     --------        |
 |             1         0.285599    0.000000    0.000000    12.259863        |
 |             2         0.000000    0.628319    0.000000     2.533030        |
 |             3         0.000000    0.000000    0.628319     2.533030        |
 +----------------------------------------------------------------------------+
  
 Time to get kmesh              0.071 (sec)
 Time to project overlaps       0.004 (sec)
 
 *------------------------------- WANNIERISE ---------------------------------*
 +--------------------------------------------------------------------+<-- CONV
 | Iter  Delta Spread     RMS Gradient      Spread (Ang^2)      Time  |<-- CONV
 +--------------------------------------------------------------------+<-- CONV
 
 ------------------------------------------------------------------------------
 Initial State
  WF centre and spread    1  (  9.684113,  5.000000,  5.000000 )     0.57431830
  WF centre and spread    2  ( 10.604810,  5.000000,  5.000000 )     0.43939382
  WF centre and spread    3  (-10.604810,  5.000000,  5.000000 )     0.43939382
  WF centre and spread    4  ( -9.684113,  5.000000,  5.000000 )     0.57431830
  Sum of centres and spreads ( -0.000000, 20.000000, 20.000000 )     2.02742424
 
      0     0.203E+01                         2.0274242437      44.61  <-- CONV
        O_D=      0.0000000 O_OD=      0.0049539 O_TOT=      2.0274242 <-- SPRD
 ------------------------------------------------------------------------------
 Cycle:      1
  WF centre and spread    1  (  9.683858,  5.000000,  5.000000 )     0.57288023
  WF centre and spread    2  ( 10.605215,  5.000000,  5.000000 )     0.44019708
  WF centre and spread    3  (-10.605214,  5.000000,  5.000000 )     0.44019694
  WF centre and spread    4  ( -9.683857,  5.000000,  5.000000 )     0.57288305
  Sum of centres and spreads (  0.000000, 20.000000, 20.000000 )     2.02615730
 
      1    -0.127E-02                         2.0261572989      44.61  <-- CONV
        O_D=      0.0000000 O_OD=      0.0036869 O_TOT=      2.0261573 <-- SPRD
 Delta: O_D=  0.0000000E+00 O_OD= -0.1266945E-02 O_TOT= -0.1266945E-02 <-- DLTA
 ------------------------------------------------------------------------------
 Cycle:      2
  WF centre and spread    1  (  9.683858,  5.000000,  5.000000 )     0.57288109
  WF centre and spread    2  ( 10.605215,  5.000000,  5.000000 )     0.44019756
  WF centre and spread    3  (-10.605215,  5.000000,  5.000000 )     0.44019755
  WF centre and spread    4  ( -9.683858,  5.000000,  5.000000 )     0.57288110
  Sum of centres and spreads (  0.000000, 20.000000, 20.000000 )     2.02615730
 
      2    -0.365E-08                         2.0261572953      44.61  <-- CONV
        O_D=      0.0000000 O_OD=      0.0036869 O_TOT=      2.0261573 <-- SPRD
 Delta: O_D=  0.0000000E+00 O_OD= -0.3650086E-08 O_TOT= -0.3650086E-08 <-- DLTA
 ------------------------------------------------------------------------------
 Cycle:      3
  WF centre and spread    1  (  9.683858,  5.000000,  5.000000 )     0.57288110
  WF centre and spread    2  ( 10.605215,  5.000000,  5.000000 )     0.44019755
  WF centre and spread    3  (-10.605215,  5.000000,  5.000000 )     0.44019755
  WF centre and spread    4  ( -9.683858,  5.000000,  5.000000 )     0.57288110
  Sum of centres and spreads (  0.000000, 20.000000, 20.000000 )     2.02615730
 
      3    -0.426E-13                         2.0261572953      44.61  <-- CONV
        O_D=      0.0000000 O_OD=      0.0036869 O_TOT=      2.0261573 <-- SPRD
 Delta: O_D=  0.0000000E+00 O_OD= -0.4263256E-13 O_TOT= -0.4263256E-13 <-- DLTA
 ------------------------------------------------------------------------------
 Cycle:      4
  WF centre and spread    1  (  9.683858,  5.000000,  5.000000 )     0.57288110
  WF centre and spread    2  ( 10.605215,  5.000000,  5.000000 )     0.44019755
  WF centre and spread    3  (-10.605215,  5.000000,  5.000000 )     0.44019755
  WF centre and spread    4  ( -9.683858,  5.000000,  5.000000 )     0.57288110
  Sum of centres and spreads (  0.000000, 20.000000, 20.000000 )     2.02615730
 
      4     0.000E+00                         2.0261572953      44.61  <-- CONV
        O_D=      0.0000000 O_OD=      0.0036869 O_TOT=      2.0261573 <-- SPRD
 Delta: O_D=  0.0000000E+00 O_OD=  0.0000000E+00 O_TOT=  0.0000000E+00 <-- DLTA
 ------------------------------------------------------------------------------
 Cycle:      5
  WF centre and spread    1  (  9.683858,  5.000000,  5.000000 )     0.57288110
  WF centre and spread    2  ( 10.605215,  5.000000,  5.000000 )     0.44019755
  WF centre and spread    3  (-10.605215,  5.000000,  5.000000 )     0.44019755
  WF centre and spread    4  ( -9.683858,  5.000000,  5.000000 )     0.57288110
  Sum of centres and spreads (  0.000000, 20.000000, 20.000000 )     2.02615730
 
      5     0.000E+00                         2.0261572953      44.61  <-- CONV
        O_D=      0.0000000 O_OD=      0.0036869 O_TOT=      2.0261573 <-- SPRD
 Delta: O_D=  0.0000000E+00 O_OD=  0.0000000E+00 O_TOT=  0.0000000E+00 <-- DLTA
 ------------------------------------------------------------------------------
 Cycle:      6
  WF centre and spread    1  (  9.683858,  5.000000,  5.000000 )     0.57288110
  WF centre and spread    2  ( 10.605215,  5.000000,  5.000000 )     0.44019755
  WF centre and spread    3  (-10.605215,  5.000000,  5.000000 )     0.44019755
  WF centre and spread    4  ( -9.683858,  5.000000,  5.000000 )     0.57288110
  Sum of centres and spreads (  0.000000, 20.000000, 20.000000 )     2.02615730
 
      6     0.000E+00                         2.0261572953      44.62  <-- CONV
        O_D=      0.0000000 O_OD=      0.0036869 O_TOT=      2.0261573 <-- SPRD
 Delta: O_D=  0.0000000E+00 O_OD=  0.0000000E+00 O_TOT=  0.0000000E+00 <-- DLTA
 ------------------------------------------------------------------------------
 Cycle:      7
  WF centre and spread    1  (  9.683858,  5.000000,  5.000000 )     0.57288110
  WF centre and spread    2  ( 10.605215,  5.000000,  5.000000 )     0.44019755
  WF centre and spread    3  (-10.605215,  5.000000,  5.000000 )     0.44019755
  WF centre and spread    4  ( -9.683858,  5.000000,  5.000000 )     0.57288110
  Sum of centres and spreads (  0.000000, 20.000000, 20.000000 )     2.02615730
 
      7     0.000E+00                         2.0261572953      44.62  <-- CONV
        O_D=      0.0000000 O_OD=      0.0036869 O_TOT=      2.0261573 <-- SPRD
 Delta: O_D=  0.0000000E+00 O_OD=  0.0000000E+00 O_TOT=  0.0000000E+00 <-- DLTA
 ------------------------------------------------------------------------------

             <<<     Delta < 1.000E-10  over  5 iterations     >>>
             <<< Wannierisation convergence criteria satisfied >>>

 Final State
  WF centre and spread    1  (  9.683858,  5.000000,  5.000000 )     0.57288110
  WF centre and spread    2  ( 10.605215,  5.000000,  5.000000 )     0.44019755
  WF centre and spread    3  (-10.605215,  5.000000,  5.000000 )     0.44019755
  WF centre and spread    4  ( -9.683858,  5.000000,  5.000000 )     0.57288110
  Sum of centres and spreads (  0.000000, 20.000000, 20.000000 )     2.02615730
 
         Spreads (Ang^2)       Omega I      =     2.022470368
        ================       Omega D      =     0.000000000
                               Omega OD     =     0.003686927
    Final Spread (Ang^2)       Omega Total  =     2.026157295
 ------------------------------------------------------------------------------

 Writing checkpoint file H4.chk... done

 Time for wannierise            0.053 (sec)
 Total Execution Time           0.148 (sec)

 *===========================================================================*
 |                             TIMING INFORMATION                            |
 *===========================================================================*
 |    Tag                                                Ncalls      Time (s)|
 |---------------------------------------------------------------------------|
 |kmesh: get                                        :         2         0.078|
 |wann: main_gamma                                  :         1         0.011|
 *---------------------------------------------------------------------------*
 
 All done: wannier90 exiting
 
             +---------------------------------------------------+
             |                                                   |
             |                   WANNIER90                       |
             |                                                   |
             +---------------------------------------------------+
             |                                                   |
             |        Welcome to the Maximally-Localized         |
             |        Generalized Wannier Functions code         |
             |            http://www.wannier.org                 |
             |                                                   |
             |  Wannier90 v2.x Authors:                          |
             |    Arash A. Mostofi  (Imperial College London)    |
             |    Giovanni Pizzi    (EPFL)                       |
             |    Ivo Souza         (Universidad del Pais Vasco) |
             |    Jonathan R. Yates (University of Oxford)       |
             |                                                   |
             |  Wannier90 Contributors:                          |
             |    Young-Su Lee       (KIST, S. Korea)            |
             |    Matthew Shelley    (Imperial College London)   |
             |    Nicolas Poilvert   (Penn State University)     |
             |    Raffaello Bianco   (Paris 6 and CNRS)          |
             |    Gabriele Sclauzero (ETH Zurich)                |
             |    David Strubbe (MIT, USA)                       |
             |    Rei Sakuma (Lund University, Sweden)           |
             |    Yusuke Nomura (U. Tokyo, Japan)                |
             |    Takashi Koretsune (Riken, Japan)               |
             |    Yoshiro Nohara (ASMS Co. Ltd., Japan)          |
             |    Ryotaro Arita (Riken, Japan)                   |
             |    Lorenzo Paulatto (UPMC Paris)                  |
             |    Florian Thole (ETH Zurich)                     |
             |    Pablo Garcia Fernandez (Unican, Spain)         |
             |    Dominik Gresch (ETH Zurich)                    |
             |    Samuel Ponce (University of Oxford)            |
             |    Marco Gibertini (EPFL)                         |
             |    Christian Stieger (ETHZ, CH)                   |
             |    Stepan Tsirkin (Universidad del Pais Vasco)    |
             |                                                   |
             |  Wannier77 Authors:                               |
             |    Nicola Marzari    (EPFL)                       |
             |    Ivo Souza         (Universidad del Pais Vasco) |
             |    David Vanderbilt  (Rutgers University)         |
             |                                                   |
             |  Please cite                                      |
             |                                                   |
             |  [ref] "An updated version of Wannier90:          |
             |        A Tool for Obtaining Maximally Localised   |
             |        Wannier Functions", A. A. Mostofi,         |
             |        J. R. Yates, G. Pizzi, Y. S. Lee,          |
             |        I. Souza, D. Vanderbilt and N. Marzari,    |
             |        Comput. Phys. Commun. 185, 2309 (2014)     |
             |        http://dx.doi.org/10.1016/j.cpc.2014.05.003|
             |                                                   |
             |  in any publications arising from the use of      |
             |  this code. For the method please cite            |
             |                                                   |
             |  [ref] "Maximally Localized Generalised Wannier   |
             |         Functions for Composite Energy Bands"     |
             |         N. Marzari and D. Vanderbilt              |
             |         Phys. Rev. B 56 12847 (1997)              |
             |                                                   |
             |  [ref] "Maximally Localized Wannier Functions     |
             |         for Entangled Energy Bands"               |
             |         I. Souza, N. Marzari and D. Vanderbilt    |
             |         Phys. Rev. B 65 035109 (2001)             |
             |                                                   |
             |                                                   |
             | Copyright (c) 1996-2017                           |
             |        Arash A. Mostofi, Jonathan R. Yates,       |
             |        Young-Su Lee, Giovanni Pizzi, Ivo Souza,   |
             |        David Vanderbilt and Nicola Marzari        |
             |                                                   |
             |        Release: 2.1.0   13th January 2017         |
             |                                                   |
             | This program is free software; you can            |
             | redistribute it and/or modify it under the terms  |
             | of the GNU General Public License as published by |
             | the Free Software Foundation; either version 2 of |
             | the License, or (at your option) any later version|
             |                                                   |
             | This program is distributed in the hope that it   |
             | will be useful, but WITHOUT ANY WARRANTY; without |
             | even the implied warranty of MERCHANTABILITY or   |
             | FITNESS FOR A PARTICULAR PURPOSE. See the GNU     |
             | General Public License for more details.          |
             |                                                   |
             | You should have received a copy of the GNU General|
             | Public License along with this program; if not,   |
             | write to the Free Software Foundation, Inc.,      |
             | 675 Mass Ave, Cambridge, MA 02139, USA.           |
             |                                                   |
             +---------------------------------------------------+
             |    Execution started on 23Feb2018 at 03:01:31     |
             +---------------------------------------------------+
 
 ******************************************************************************
 * -> Using CODATA 2006 constant values                                       *
 *    (http://physics.nist.gov/cuu/Constants/index.html)                      *
 * -> Using Bohr value from CODATA                                            *
 ******************************************************************************
 

 Wannier90 is running in LIBRARY MODE

 Setting up k-point neighbours...

 
                                    ------
                                    SYSTEM
                                    ------
 
                              Lattice Vectors (Ang)
                    a_1    22.000000   0.000000   0.000000
                    a_2     0.000000  10.000000   0.000000
                    a_3     0.000000   0.000000  10.000000
 
                   Unit Cell Volume:    2200.00000  (Ang^3)
 
                        Reciprocal-Space Vectors (Ang^-1)
                    b_1     0.285599   0.000000   0.000000
                    b_2     0.000000   0.628319   0.000000
                    b_3     0.000000   0.000000   0.628319
  
 *----------------------------------------------------------------------------*
 |   Site       Fractional Coordinate          Cartesian Coordinate (Ang)     |
 +----------------------------------------------------------------------------+
 | H    1   0.44955   0.50000   0.50000   |    9.89000   5.00000   5.00000    |
 | H    2   0.48318   0.50000   0.50000   |   10.63000   5.00000   5.00000    |
 | H    3   0.51682   0.50000   0.50000   |   11.37000   5.00000   5.00000    |
 | H    4   0.55045   0.50000   0.50000   |   12.11000   5.00000   5.00000    |
 *----------------------------------------------------------------------------*
  
                                -----------
                                PROJECTIONS
                                -----------
  
 +----------------------------------------------------------------------------+
 |     Frac. Coord.   l mr  r        z-axis               x-axis          Z/a |
 +----------------------------------------------------------------------------+
 |  0.45  0.50  0.50  0  1  1  0.000  0.000  1.000  1.000  0.000  0.000   1.0 |
 |  0.48  0.50  0.50  0  1  1  0.000  0.000  1.000  1.000  0.000  0.000   1.0 |
 |  0.52  0.50  0.50  0  1  1  0.000  0.000  1.000  1.000  0.000  0.000   1.0 |
 |  0.55  0.50  0.50  0  1  1  0.000  0.000  1.000  1.000  0.000  0.000   1.0 |
 +----------------------------------------------------------------------------+
  
                                ------------
                                K-POINT GRID
                                ------------
  
             Grid size =  1 x  1 x  1      Total points =    1
  
 *----------------------------------------------------------------------------*
 | k-point      Fractional Coordinate        Cartesian Coordinate (Ang^-1)    |
 +----------------------------------------------------------------------------+
 |     1    0.00000   0.00000   0.00000   |    0.00000   0.00000   0.00000    |
 *----------------------------------------------------------------------------*
  
  
 *---------------------------------- MAIN ------------------------------------*
 |  Number of Wannier Functions               :                 4             |
 |  Number of input Bloch states              :                 4             |
 |  Output verbosity (1=low, 5=high)          :                 2             |
 |  Timing Level (1=low, 5=high)              :                 1             |
 |  Optimisation (0=memory, 3=speed)          :                 3             |
 |  Length Unit                               :               Ang             |
 |  Post-processing setup (write *.nnkp)      :                 F             |
 |  Using Gamma-only branch of algorithms     :                 T             |
 |  Wavefunction (UNK) file-type              :         formatted             |
 |  Wavefunction spin channel                 :                up             |
 *----------------------------------------------------------------------------*
 *------------------------------- WANNIERISE ---------------------------------*
 |  Total number of iterations                :               100             |
 |  Number of CG steps before reset           :                 5             |
 |  Trial step length for line search         :             2.000             |
 |  Convergence tolerence                     :         0.100E-09             |
 |  Convergence window                        :                 5             |
 |  Iterations between writing output         :                 1             |
 |  Iterations between backing up to disk     :               100             |
 |  Write r^2_nm to file                      :                 F             |
 |  Write xyz WF centres to file              :                 F             |
 |  Write on-site energies <0n|H|0n> to file  :                 F             |
 |  Use guiding centre to control phases      :                 T             |
 |  Use phases for initial projections        :                 F             |
 |  Iterations before starting guiding centres:                 0             |
 |  Iterations between using guiding centres  :                 1             |
 *----------------------------------------------------------------------------*
 *-------------------------------- PLOTTING ----------------------------------*
 |  Plotting Wannier functions                :                 T             |
 |   Size of supercell for plotting           :     1x    1x    1             |
 |  Translating WFs to home cell              :                 T             |
 |   Plotting mode (molecule or crystal)      :           crystal             |
 |   Plotting format                          :          xcrysden             |
 *----------------------------------------------------------------------------*
 Time to read parameters        0.001 (sec)

 *---------------------------------- K-MESH ----------------------------------*
 +----------------------------------------------------------------------------+
 |                    Distance to Nearest-Neighbour Shells                    |
 |                    ------------------------------------                    |
 |          Shell             Distance (Ang^-1)          Multiplicity         |
 |          -----             -----------------          ------------         |
 |             1                   0.285599                      2            |
 |             2                   0.571199                      2            |
 |             3                   0.628319                      4            |
 |             4                   0.690182                      8            |
 |             5                   0.849148                      8            |
 |             6                   0.856798                      2            |
 |             7                   0.888577                      4            |
 |             8                   0.933346                      8            |
 |             9                   1.056332                      8            |
 |            10                   1.062491                      8            |
 |            11                   1.142397                      2            |
 |            12                   1.234371                      8            |
 +----------------------------------------------------------------------------+
 | The b-vectors are chosen automatically                                     |
 | Shell:  1 w_b    6.1299316      (Ang^2)                                    |
 | Shell:  1 w_b    6.1299316      (Ang^2)                                    |
 | Shell:  2 w_b    1.2665148      (Ang^2)                                    |
 | The following shells are used:   1,  3                                     |
 +----------------------------------------------------------------------------+
 |                        Shell   # Nearest-Neighbours                        |
 |                        -----   --------------------                        |
 |                          1               2                                 |
 |                          3               4                                 |
 +----------------------------------------------------------------------------+
 | Completeness relation is fully satisfied [Eq. (B1), PRB 56, 12847 (1997)]  |
 +----------------------------------------------------------------------------+
 |                  b_k Vectors (Ang^-1) and Weights (Ang^2)                  |
 |                  ----------------------------------------                  |
 |            No.         b_k(x)      b_k(y)      b_k(z)        w_b           |
 |            ---        --------------------------------     --------        |
 |             1         0.285599    0.000000    0.000000     6.129932        |
 |             2        -0.285599    0.000000    0.000000     6.129932        |
 |             3         0.000000    0.628319    0.000000     1.266515        |
 |             4         0.000000    0.000000    0.628319     1.266515        |
 |             5         0.000000    0.000000   -0.628319     1.266515        |
 |             6         0.000000   -0.628319    0.000000     1.266515        |
 +----------------------------------------------------------------------------+
 |                           b_k Directions (Ang^-1)                          |
 |                           -----------------------                          |
 |            No.           x           y           z                         |
 |            ---        --------------------------------                     |
 |             1         0.285599    0.000000    0.000000                     |
 |             2         0.000000    0.628319    0.000000                     |
 |             3         0.000000    0.000000    0.628319                     |
 +----------------------------------------------------------------------------+
  
 +----------------------------------------------------------------------------+
 |        Gamma-point: number of the b-vectors is reduced by half             |
 +----------------------------------------------------------------------------+
 |                  b_k Vectors (Ang^-1) and Weights (Ang^2)                  |
 |                  ----------------------------------------                  |
 |            No.         b_k(x)      b_k(y)      b_k(z)        w_b           |
 |            ---        --------------------------------     --------        |
 |             1         0.285599    0.000000    0.000000    12.259863        |
 |             2         0.000000    0.628319    0.000000     2.533030        |
 |             3         0.000000    0.000000    0.628319     2.533030        |
 +----------------------------------------------------------------------------+
  
 Time to write kmesh            0.006 (sec)

 Finished setting up k-point neighbours.

 Exiting wannier_setup in wannier90 03:01:31 

 Resuming Wannier90 at 03:02:07 

 
                                    ------
                                    SYSTEM
                                    ------
 
                              Lattice Vectors (Ang)
                    a_1    22.000000   0.000000   0.000000
                    a_2     0.000000  10.000000   0.000000
                    a_3     0.000000   0.000000  10.000000
 
                   Unit Cell Volume:    2200.00000  (Ang^3)
 
                        Reciprocal-Space Vectors (Ang^-1)
                    b_1     0.285599   0.000000   0.000000
                    b_2     0.000000   0.628319   0.000000
                    b_3     0.000000   0.000000   0.628319
  
 *----------------------------------------------------------------------------*
 |   Site       Fractional Coordinate          Cartesian Coordinate (Ang)     |
 +----------------------------------------------------------------------------+
 | H    1   0.44955   0.50000   0.50000   |    9.89000   5.00000   5.00000    |
 | H    2   0.48318   0.50000   0.50000   |   10.63000   5.00000   5.00000    |
 | H    3   0.51682   0.50000   0.50000   |   11.37000   5.00000   5.00000    |
 | H    4   0.55045   0.50000   0.50000   |   12.11000   5.00000   5.00000    |
 *----------------------------------------------------------------------------*
  
                                -----------
                                PROJECTIONS
                                -----------
  
 +----------------------------------------------------------------------------+
 |     Frac. Coord.   l mr  r        z-axis               x-axis          Z/a |
 +----------------------------------------------------------------------------+
 |  0.45  0.50  0.50  0  1  1  0.000  0.000  1.000  1.000  0.000  0.000   1.0 |
 |  0.48  0.50  0.50  0  1  1  0.000  0.000  1.000  1.000  0.000  0.000   1.0 |
 |  0.52  0.50  0.50  0  1  1  0.000  0.000  1.000  1.000  0.000  0.000   1.0 |
 |  0.55  0.50  0.50  0  1  1  0.000  0.000  1.000  1.000  0.000  0.000   1.0 |
 +----------------------------------------------------------------------------+
  
                                ------------
                                K-POINT GRID
                                ------------
  
             Grid size =  1 x  1 x  1      Total points =    1
  
 *----------------------------------------------------------------------------*
 | k-point      Fractional Coordinate        Cartesian Coordinate (Ang^-1)    |
 +----------------------------------------------------------------------------+
 |     1    0.00000   0.00000   0.00000   |    0.00000   0.00000   0.00000    |
 *----------------------------------------------------------------------------*
  
  
 *---------------------------------- MAIN ------------------------------------*
 |  Number of Wannier Functions               :                 4             |
 |  Number of input Bloch states              :                 4             |
 |  Output verbosity (1=low, 5=high)          :                 2             |
 |  Timing Level (1=low, 5=high)              :                 1             |
 |  Optimisation (0=memory, 3=speed)          :                 3             |
 |  Length Unit                               :               Ang             |
 |  Post-processing setup (write *.nnkp)      :                 F             |
 |  Using Gamma-only branch of algorithms     :                 T             |
 |  Wavefunction (UNK) file-type              :         formatted             |
 |  Wavefunction spin channel                 :                up             |
 *----------------------------------------------------------------------------*
 *------------------------------- WANNIERISE ---------------------------------*
 |  Total number of iterations                :               100             |
 |  Number of CG steps before reset           :                 5             |
 |  Trial step length for line search         :             2.000             |
 |  Convergence tolerence                     :         0.100E-09             |
 |  Convergence window                        :                 5             |
 |  Iterations between writing output         :                 1             |
 |  Iterations between backing up to disk     :               100             |
 |  Write r^2_nm to file                      :                 F             |
 |  Write xyz WF centres to file              :                 F             |
 |  Write on-site energies <0n|H|0n> to file  :                 F             |
 |  Use guiding centre to control phases      :                 T             |
 |  Use phases for initial projections        :                 F             |
 |  Iterations before starting guiding centres:                 0             |
 |  Iterations between using guiding centres  :                 1             |
 *----------------------------------------------------------------------------*
 *-------------------------------- PLOTTING ----------------------------------*
 |  Plotting Wannier functions                :                 T             |
 |   Size of supercell for plotting           :     1x    1x    1             |
 |  Translating WFs to home cell              :                 T             |
 |   Plotting mode (molecule or crystal)      :           crystal             |
 |   Plotting format                          :          xcrysden             |
 *----------------------------------------------------------------------------*
 Time to read parameters        0.021 (sec)

 *---------------------------------- K-MESH ----------------------------------*
 +----------------------------------------------------------------------------+
 |                    Distance to Nearest-Neighbour Shells                    |
 |                    ------------------------------------                    |
 |          Shell             Distance (Ang^-1)          Multiplicity         |
 |          -----             -----------------          ------------         |
 |             1                   0.285599                      2            |
 |             2                   0.571199                      2            |
 |             3                   0.628319                      4            |
 |             4                   0.690182                      8            |
 |             5                   0.849148                      8            |
 |             6                   0.856798                      2            |
 |             7                   0.888577                      4            |
 |             8                   0.933346                      8            |
 |             9                   1.056332                      8            |
 |            10                   1.062491                      8            |
 |            11                   1.142397                      2            |
 |            12                   1.234371                      8            |
 +----------------------------------------------------------------------------+
 | The b-vectors are chosen automatically                                     |
 | Shell:  1 w_b    6.1299316      (Ang^2)                                    |
 | Shell:  1 w_b    6.1299316      (Ang^2)                                    |
 | Shell:  2 w_b    1.2665148      (Ang^2)                                    |
 | The following shells are used:   1,  3                                     |
 +----------------------------------------------------------------------------+
 |                        Shell   # Nearest-Neighbours                        |
 |                        -----   --------------------                        |
 |                          1               2                                 |
 |                          3               4                                 |
 +----------------------------------------------------------------------------+
 | Completeness relation is fully satisfied [Eq. (B1), PRB 56, 12847 (1997)]  |
 +----------------------------------------------------------------------------+
 |                  b_k Vectors (Ang^-1) and Weights (Ang^2)                  |
 |                  ----------------------------------------                  |
 |            No.         b_k(x)      b_k(y)      b_k(z)        w_b           |
 |            ---        --------------------------------     --------        |
 |             1         0.285599    0.000000    0.000000     6.129932        |
 |             2        -0.285599    0.000000    0.000000     6.129932        |
 |             3         0.000000    0.628319    0.000000     1.266515        |
 |             4         0.000000    0.000000    0.628319     1.266515        |
 |             5         0.000000    0.000000   -0.628319     1.266515        |
 |             6         0.000000   -0.628319    0.000000     1.266515        |
 +----------------------------------------------------------------------------+
 |                           b_k Directions (Ang^-1)                          |
 |                           -----------------------                          |
 |            No.           x           y           z                         |
 |            ---        --------------------------------                     |
 |             1         0.285599    0.000000    0.000000                     |
 |             2         0.000000    0.628319    0.000000                     |
 |             3         0.000000    0.000000    0.628319                     |
 +----------------------------------------------------------------------------+
  
 +----------------------------------------------------------------------------+
 |        Gamma-point: number of the b-vectors is reduced by half             |
 +----------------------------------------------------------------------------+
 |                  b_k Vectors (Ang^-1) and Weights (Ang^2)                  |
 |                  ----------------------------------------                  |
 |            No.         b_k(x)      b_k(y)      b_k(z)        w_b           |
 |            ---        --------------------------------     --------        |
 |             1         0.285599    0.000000    0.000000    12.259863        |
 |             2         0.000000    0.628319    0.000000     2.533030        |
 |             3         0.000000    0.000000    0.628319     2.533030        |
 +----------------------------------------------------------------------------+
  
 Time to get kmesh              0.066 (sec)
 Time to project overlaps       0.002 (sec)
 
 *------------------------------- WANNIERISE ---------------------------------*
 +--------------------------------------------------------------------+<-- CONV
 | Iter  Delta Spread     RMS Gradient      Spread (Ang^2)      Time  |<-- CONV
 +--------------------------------------------------------------------+<-- CONV
 
 ------------------------------------------------------------------------------
 Initial State
  WF centre and spread    1  (  9.684113,  5.000000,  5.000000 )     0.57431830
  WF centre and spread    2  ( 10.604810,  5.000000,  5.000000 )     0.43939382
  WF centre and spread    3  (-10.604810,  5.000000,  5.000000 )     0.43939382
  WF centre and spread    4  ( -9.684113,  5.000000,  5.000000 )     0.57431830
  Sum of centres and spreads ( -0.000000, 20.000000, 20.000000 )     2.02742424
 
      0     0.203E+01                         2.0274242437      44.91  <-- CONV
        O_D=      0.0000000 O_OD=      0.0049539 O_TOT=      2.0274242 <-- SPRD
 ------------------------------------------------------------------------------
 Cycle:      1
  WF centre and spread    1  (  9.683858,  5.000000,  5.000000 )     0.57288023
  WF centre and spread    2  ( 10.605215,  5.000000,  5.000000 )     0.44019708
  WF centre and spread    3  (-10.605214,  5.000000,  5.000000 )     0.44019694
  WF centre and spread    4  ( -9.683857,  5.000000,  5.000000 )     0.57288305
  Sum of centres and spreads (  0.000000, 20.000000, 20.000000 )     2.02615730
 
      1    -0.127E-02                         2.0261572989      44.91  <-- CONV
        O_D=      0.0000000 O_OD=      0.0036869 O_TOT=      2.0261573 <-- SPRD
 Delta: O_D=  0.0000000E+00 O_OD= -0.1266945E-02 O_TOT= -0.1266945E-02 <-- DLTA
 ------------------------------------------------------------------------------
 Cycle:      2
  WF centre and spread    1  (  9.683858,  5.000000,  5.000000 )     0.57288109
  WF centre and spread    2  ( 10.605215,  5.000000,  5.000000 )     0.44019756
  WF centre and spread    3  (-10.605215,  5.000000,  5.000000 )     0.44019755
  WF centre and spread    4  ( -9.683858,  5.000000,  5.000000 )     0.57288110
  Sum of centres and spreads (  0.000000, 20.000000, 20.000000 )     2.02615730
 
      2    -0.365E-08                         2.0261572953      44.91  <-- CONV
        O_D=      0.0000000 O_OD=      0.0036869 O_TOT=      2.0261573 <-- SPRD
 Delta: O_D=  0.0000000E+00 O_OD= -0.3650115E-08 O_TOT= -0.3650115E-08 <-- DLTA
 ------------------------------------------------------------------------------
 Cycle:      3
  WF centre and spread    1  (  9.683858,  5.000000,  5.000000 )     0.57288110
  WF centre and spread    2  ( 10.605215,  5.000000,  5.000000 )     0.44019755
  WF centre and spread    3  (-10.605215,  5.000000,  5.000000 )     0.44019755
  WF centre and spread    4  ( -9.683858,  5.000000,  5.000000 )     0.57288110
  Sum of centres and spreads (  0.000000, 20.000000, 20.000000 )     2.02615730
 
      3    -0.284E-13                         2.0261572953      44.91  <-- CONV
        O_D=      0.0000000 O_OD=      0.0036869 O_TOT=      2.0261573 <-- SPRD
 Delta: O_D=  0.0000000E+00 O_OD= -0.2842171E-13 O_TOT= -0.2842171E-13 <-- DLTA
 ------------------------------------------------------------------------------
 Cycle:      4
  WF centre and spread    1  (  9.683858,  5.000000,  5.000000 )     0.57288110
  WF centre and spread    2  ( 10.605215,  5.000000,  5.000000 )     0.44019755
  WF centre and spread    3  (-10.605215,  5.000000,  5.000000 )     0.44019755
  WF centre and spread    4  ( -9.683858,  5.000000,  5.000000 )     0.57288110
  Sum of centres and spreads (  0.000000, 20.000000, 20.000000 )     2.02615730
 
      4     0.000E+00                         2.0261572953      44.92  <-- CONV
        O_D=      0.0000000 O_OD=      0.0036869 O_TOT=      2.0261573 <-- SPRD
 Delta: O_D=  0.0000000E+00 O_OD=  0.0000000E+00 O_TOT=  0.0000000E+00 <-- DLTA
 ------------------------------------------------------------------------------
 Cycle:      5
  WF centre and spread    1  (  9.683858,  5.000000,  5.000000 )     0.57288110
  WF centre and spread    2  ( 10.605215,  5.000000,  5.000000 )     0.44019755
  WF centre and spread    3  (-10.605215,  5.000000,  5.000000 )     0.44019755
  WF centre and spread    4  ( -9.683858,  5.000000,  5.000000 )     0.57288110
  Sum of centres and spreads (  0.000000, 20.000000, 20.000000 )     2.02615730
 
      5     0.000E+00                         2.0261572953      44.92  <-- CONV
        O_D=      0.0000000 O_OD=      0.0036869 O_TOT=      2.0261573 <-- SPRD
 Delta: O_D=  0.0000000E+00 O_OD=  0.0000000E+00 O_TOT=  0.0000000E+00 <-- DLTA
 ------------------------------------------------------------------------------
 Cycle:      6
  WF centre and spread    1  (  9.683858,  5.000000,  5.000000 )     0.57288110
  WF centre and spread    2  ( 10.605215,  5.000000,  5.000000 )     0.44019755
  WF centre and spread    3  (-10.605215,  5.000000,  5.000000 )     0.44019755
  WF centre and spread    4  ( -9.683858,  5.000000,  5.000000 )     0.57288110
  Sum of centres and spreads (  0.000000, 20.000000, 20.000000 )     2.02615730
 
      6     0.000E+00                         2.0261572953      44.92  <-- CONV
        O_D=      0.0000000 O_OD=      0.0036869 O_TOT=      2.0261573 <-- SPRD
 Delta: O_D=  0.0000000E+00 O_OD=  0.0000000E+00 O_TOT=  0.0000000E+00 <-- DLTA
 ------------------------------------------------------------------------------
 Cycle:      7
  WF centre and spread    1  (  9.683858,  5.000000,  5.000000 )     0.57288110
  WF centre and spread    2  ( 10.605215,  5.000000,  5.000000 )     0.44019755
  WF centre and spread    3  (-10.605215,  5.000000,  5.000000 )     0.44019755
  WF centre and spread    4  ( -9.683858,  5.000000,  5.000000 )     0.57288110
  Sum of centres and spreads (  0.000000, 20.000000, 20.000000 )     2.02615730
 
      7     0.000E+00                         2.0261572953      44.92  <-- CONV
        O_D=      0.0000000 O_OD=      0.0036869 O_TOT=      2.0261573 <-- SPRD
 Delta: O_D=  0.0000000E+00 O_OD=  0.0000000E+00 O_TOT=  0.0000000E+00 <-- DLTA
 ------------------------------------------------------------------------------

             <<<     Delta < 1.000E-10  over  5 iterations     >>>
             <<< Wannierisation convergence criteria satisfied >>>

 Final State
  WF centre and spread    1  (  9.683858,  5.000000,  5.000000 )     0.57288110
  WF centre and spread    2  ( 10.605215,  5.000000,  5.000000 )     0.44019755
  WF centre and spread    3  (-10.605215,  5.000000,  5.000000 )     0.44019755
  WF centre and spread    4  ( -9.683858,  5.000000,  5.000000 )     0.57288110
  Sum of centres and spreads (  0.000000, 20.000000, 20.000000 )     2.02615730
 
         Spreads (Ang^2)       Omega I      =     2.022470368
        ================       Omega D      =     0.000000000
                               Omega OD     =     0.003686927
    Final Spread (Ang^2)       Omega Total  =     2.026157295
 ------------------------------------------------------------------------------

 Writing checkpoint file H4.chk... done

 Time for wannierise            0.020 (sec)
 *---------------------------------------------------------------------------*
 |                               PLOTTING                                    |
 *---------------------------------------------------------------------------*
 
      Wannier Function Num:    1       Maximum Im/Re Ratio =    0.000000
      Wannier Function Num:    2       Maximum Im/Re Ratio =    0.000000
      Wannier Function Num:    3       Maximum Im/Re Ratio =    0.000000
      Wannier Function Num:    4       Maximum Im/Re Ratio =    0.000000
  
 Time for plotting             10.063 (sec)
 Total Execution Time          10.172 (sec)

 *===========================================================================*
 |                             TIMING INFORMATION                            |
 *===========================================================================*
 |    Tag                                                Ncalls      Time (s)|
 |---------------------------------------------------------------------------|
 |kmesh: get                                        :         2         0.070|
 |wann: main_gamma                                  :         1         0.011|
 |plot: main                                        :         1        10.063|
 *---------------------------------------------------------------------------*
 
 All done: wannier90 exiting
 
             +---------------------------------------------------+
             |                                                   |
             |                   WANNIER90                       |
             |                                                   |
             +---------------------------------------------------+
             |                                                   |
             |        Welcome to the Maximally-Localized         |
             |        Generalized Wannier Functions code         |
             |            http://www.wannier.org                 |
             |                                                   |
             |  Wannier90 v2.x Authors:                          |
             |    Arash A. Mostofi  (Imperial College London)    |
             |    Giovanni Pizzi    (EPFL)                       |
             |    Ivo Souza         (Universidad del Pais Vasco) |
             |    Jonathan R. Yates (University of Oxford)       |
             |                                                   |
             |  Wannier90 Contributors:                          |
             |    Young-Su Lee       (KIST, S. Korea)            |
             |    Matthew Shelley    (Imperial College London)   |
             |    Nicolas Poilvert   (Penn State University)     |
             |    Raffaello Bianco   (Paris 6 and CNRS)          |
             |    Gabriele Sclauzero (ETH Zurich)                |
             |    David Strubbe (MIT, USA)                       |
             |    Rei Sakuma (Lund University, Sweden)           |
             |    Yusuke Nomura (U. Tokyo, Japan)                |
             |    Takashi Koretsune (Riken, Japan)               |
             |    Yoshiro Nohara (ASMS Co. Ltd., Japan)          |
             |    Ryotaro Arita (Riken, Japan)                   |
             |    Lorenzo Paulatto (UPMC Paris)                  |
             |    Florian Thole (ETH Zurich)                     |
             |    Pablo Garcia Fernandez (Unican, Spain)         |
             |    Dominik Gresch (ETH Zurich)                    |
             |    Samuel Ponce (University of Oxford)            |
             |    Marco Gibertini (EPFL)                         |
             |    Christian Stieger (ETHZ, CH)                   |
             |    Stepan Tsirkin (Universidad del Pais Vasco)    |
             |                                                   |
             |  Wannier77 Authors:                               |
             |    Nicola Marzari    (EPFL)                       |
             |    Ivo Souza         (Universidad del Pais Vasco) |
             |    David Vanderbilt  (Rutgers University)         |
             |                                                   |
             |  Please cite                                      |
             |                                                   |
             |  [ref] "An updated version of Wannier90:          |
             |        A Tool for Obtaining Maximally Localised   |
             |        Wannier Functions", A. A. Mostofi,         |
             |        J. R. Yates, G. Pizzi, Y. S. Lee,          |
             |        I. Souza, D. Vanderbilt and N. Marzari,    |
             |        Comput. Phys. Commun. 185, 2309 (2014)     |
             |        http://dx.doi.org/10.1016/j.cpc.2014.05.003|
             |                                                   |
             |  in any publications arising from the use of      |
             |  this code. For the method please cite            |
             |                                                   |
             |  [ref] "Maximally Localized Generalised Wannier   |
             |         Functions for Composite Energy Bands"     |
             |         N. Marzari and D. Vanderbilt              |
             |         Phys. Rev. B 56 12847 (1997)              |
             |                                                   |
             |  [ref] "Maximally Localized Wannier Functions     |
             |         for Entangled Energy Bands"               |
             |         I. Souza, N. Marzari and D. Vanderbilt    |
             |         Phys. Rev. B 65 035109 (2001)             |
             |                                                   |
             |                                                   |
             | Copyright (c) 1996-2017                           |
             |        Arash A. Mostofi, Jonathan R. Yates,       |
             |        Young-Su Lee, Giovanni Pizzi, Ivo Souza,   |
             |        David Vanderbilt and Nicola Marzari        |
             |                                                   |
             |        Release: 2.1.0   13th January 2017         |
             |                                                   |
             | This program is free software; you can            |
             | redistribute it and/or modify it under the terms  |
             | of the GNU General Public License as published by |
             | the Free Software Foundation; either version 2 of |
             | the License, or (at your option) any later version|
             |                                                   |
             | This program is distributed in the hope that it   |
             | will be useful, but WITHOUT ANY WARRANTY; without |
             | even the implied warranty of MERCHANTABILITY or   |
             | FITNESS FOR A PARTICULAR PURPOSE. See the GNU     |
             | General Public License for more details.          |
             |                                                   |
             | You should have received a copy of the GNU General|
             | Public License along with this program; if not,   |
             | write to the Free Software Foundation, Inc.,      |
             | 675 Mass Ave, Cambridge, MA 02139, USA.           |
             |                                                   |
             +---------------------------------------------------+
             |    Execution started on 23Feb2018 at 03:09:06     |
             +---------------------------------------------------+
 
 ******************************************************************************
 * -> Using CODATA 2006 constant values                                       *
 *    (http://physics.nist.gov/cuu/Constants/index.html)                      *
 * -> Using Bohr value from CODATA                                            *
 ******************************************************************************
 

 Wannier90 is running in LIBRARY MODE

 Setting up k-point neighbours...

 
                                    ------
                                    SYSTEM
                                    ------
 
                              Lattice Vectors (Ang)
                    a_1    22.000000   0.000000   0.000000
                    a_2     0.000000  10.000000   0.000000
                    a_3     0.000000   0.000000  10.000000
 
                   Unit Cell Volume:    2200.00000  (Ang^3)
 
                        Reciprocal-Space Vectors (Ang^-1)
                    b_1     0.285599   0.000000   0.000000
                    b_2     0.000000   0.628319   0.000000
                    b_3     0.000000   0.000000   0.628319
  
 *----------------------------------------------------------------------------*
 |   Site       Fractional Coordinate          Cartesian Coordinate (Ang)     |
 +----------------------------------------------------------------------------+
 | H    1   0.44955   0.50000   0.50000   |    9.89000   5.00000   5.00000    |
 | H    2   0.48318   0.50000   0.50000   |   10.63000   5.00000   5.00000    |
 | H    3   0.51682   0.50000   0.50000   |   11.37000   5.00000   5.00000    |
 | H    4   0.55045   0.50000   0.50000   |   12.11000   5.00000   5.00000    |
 *----------------------------------------------------------------------------*
  
                                -----------
                                PROJECTIONS
                                -----------
  
 +----------------------------------------------------------------------------+
 |     Frac. Coord.   l mr  r        z-axis               x-axis          Z/a |
 +----------------------------------------------------------------------------+
 |  0.45  0.50  0.50  0  1  1  0.000  0.000  1.000  1.000  0.000  0.000   1.0 |
 |  0.48  0.50  0.50  0  1  1  0.000  0.000  1.000  1.000  0.000  0.000   1.0 |
 |  0.52  0.50  0.50  0  1  1  0.000  0.000  1.000  1.000  0.000  0.000   1.0 |
 |  0.55  0.50  0.50  0  1  1  0.000  0.000  1.000  1.000  0.000  0.000   1.0 |
 +----------------------------------------------------------------------------+
  
                                ------------
                                K-POINT GRID
                                ------------
  
             Grid size =  1 x  1 x  1      Total points =    1
  
[...]
 |             2        -0.285599    0.000000    0.000000     6.129932        |
 |             3         0.000000    0.628319    0.000000     1.266515        |
 |             4         0.000000    0.000000    0.628319     1.266515        |
 |             5         0.000000    0.000000   -0.628319     1.266515        |
 |             6         0.000000   -0.628319    0.000000     1.266515        |
 +----------------------------------------------------------------------------+
 |                           b_k Directions (Ang^-1)                          |
 |                           -----------------------                          |
 |            No.           x           y           z                         |
 |            ---        --------------------------------                     |
 |             1         0.285599    0.000000    0.000000                     |
 |             2         0.000000    0.628319    0.000000                     |
 |             3         0.000000    0.000000    0.628319                     |
 +----------------------------------------------------------------------------+
  
 +----------------------------------------------------------------------------+
 |        Gamma-point: number of the b-vectors is reduced by half             |
 +----------------------------------------------------------------------------+
 |                  b_k Vectors (Ang^-1) and Weights (Ang^2)                  |
 |                  ----------------------------------------                  |
 |            No.         b_k(x)      b_k(y)      b_k(z)        w_b           |
 |            ---        --------------------------------     --------        |
 |             1         0.285599    0.000000    0.000000    12.259863        |
 |             2         0.000000    0.628319    0.000000     2.533030        |
 |             3         0.000000    0.000000    0.628319     2.533030        |
 +----------------------------------------------------------------------------+
  
 Time to write kmesh            0.007 (sec)

 Finished setting up k-point neighbours.

 Exiting wannier_setup in wannier90 00:59:41 

 Resuming Wannier90 at 01:00:00 

 
                                    ------
                                    SYSTEM
                                    ------
 
                              Lattice Vectors (Ang)
                    a_1    22.000000   0.000000   0.000000
                    a_2     0.000000  10.000000   0.000000
                    a_3     0.000000   0.000000  10.000000
 
                   Unit Cell Volume:    2200.00000  (Ang^3)
 
                        Reciprocal-Space Vectors (Ang^-1)
                    b_1     0.285599   0.000000   0.000000
                    b_2     0.000000   0.628319   0.000000
                    b_3     0.000000   0.000000   0.628319
  
 *----------------------------------------------------------------------------*
 |   Site       Fractional Coordinate          Cartesian Coordinate (Ang)     |
 +----------------------------------------------------------------------------+
 | H    1   0.42682   0.50000   0.50000   |    9.39000   5.00000   5.00000    |
 | H    2   0.46045   0.50000   0.50000   |   10.13000   5.00000   5.00000    |
 | H    3   0.53955   0.50000   0.50000   |   11.87000   5.00000   5.00000    |
 | H    4   0.57318   0.50000   0.50000   |   12.61000   5.00000   5.00000    |
 *----------------------------------------------------------------------------*
  
                                -----------
                                PROJECTIONS
                                -----------
  
 +----------------------------------------------------------------------------+
 |     Frac. Coord.   l mr  r        z-axis               x-axis          Z/a |
 +----------------------------------------------------------------------------+
 |  0.43  0.50  0.50  0  1  1  0.000  0.000  1.000  1.000  0.000  0.000   1.0 |
 |  0.46  0.50  0.50  0  1  1  0.000  0.000  1.000  1.000  0.000  0.000   1.0 |
 |  0.54  0.50  0.50  0  1  1  0.000  0.000  1.000  1.000  0.000  0.000   1.0 |
 |  0.57  0.50  0.50  0  1  1  0.000  0.000  1.000  1.000  0.000  0.000   1.0 |
 +----------------------------------------------------------------------------+
  
                                ------------
                                K-POINT GRID
                                ------------
  
             Grid size =  1 x  1 x  1      Total points =    1
  
 *----------------------------------------------------------------------------*
 | k-point      Fractional Coordinate        Cartesian Coordinate (Ang^-1)    |
 +----------------------------------------------------------------------------+
 |     1    0.00000   0.00000   0.00000   |    0.00000   0.00000   0.00000    |
 *----------------------------------------------------------------------------*
  
  
 *---------------------------------- MAIN ------------------------------------*
 |  Number of Wannier Functions               :                 4             |
 |  Number of input Bloch states              :                 4             |
 |  Output verbosity (1=low, 5=high)          :                 2             |
 |  Timing Level (1=low, 5=high)              :                 1             |
 |  Optimisation (0=memory, 3=speed)          :                 3             |
 |  Length Unit                               :               Ang             |
 |  Post-processing setup (write *.nnkp)      :                 F             |
 |  Using Gamma-only branch of algorithms     :                 T             |
 *----------------------------------------------------------------------------*
 *------------------------------- WANNIERISE ---------------------------------*
 |  Total number of iterations                :               100             |
 |  Number of CG steps before reset           :                 5             |
 |  Trial step length for line search         :             2.000             |
 |  Convergence tolerence                     :         0.100E-09             |
 |  Convergence window                        :                 5             |
 |  Iterations between writing output         :                 1             |
 |  Iterations between backing up to disk     :               100             |
 |  Write r^2_nm to file                      :                 F             |
 |  Write xyz WF centres to file              :                 F             |
 |  Write on-site energies <0n|H|0n> to file  :                 F             |
 |  Use guiding centre to control phases      :                 T             |
 |  Use phases for initial projections        :                 F             |
 |  Iterations before starting guiding centres:                 0             |
 |  Iterations between using guiding centres  :                 1             |
 *----------------------------------------------------------------------------*
 Time to read parameters        0.031 (sec)

 *---------------------------------- K-MESH ----------------------------------*
 +----------------------------------------------------------------------------+
 |                    Distance to Nearest-Neighbour Shells                    |
 |                    ------------------------------------                    |
 |          Shell             Distance (Ang^-1)          Multiplicity         |
 |          -----             -----------------          ------------         |
 |             1                   0.285599                      2            |
 |             2                   0.571199                      2            |
 |             3                   0.628319                      4            |
 |             4                   0.690182                      8            |
 |             5                   0.849148                      8            |
 |             6                   0.856798                      2            |
 |             7                   0.888577                      4            |
 |             8                   0.933346                      8            |
 |             9                   1.056332                      8            |
 |            10                   1.062491                      8            |
 |            11                   1.142397                      2            |
 |            12                   1.234371                      8            |
 +----------------------------------------------------------------------------+
 | The b-vectors are chosen automatically                                     |
 | Shell:  1 w_b    6.1299316      (Ang^2)                                    |
 | Shell:  1 w_b    6.1299316      (Ang^2)                                    |
 | Shell:  2 w_b    1.2665148      (Ang^2)                                    |
 | The following shells are used:   1,  3                                     |
 +----------------------------------------------------------------------------+
 |                        Shell   # Nearest-Neighbours                        |
 |                        -----   --------------------                        |
 |                          1               2                                 |
 |                          3               4                                 |
 +----------------------------------------------------------------------------+
 | Completeness relation is fully satisfied [Eq. (B1), PRB 56, 12847 (1997)]  |
 +----------------------------------------------------------------------------+
 |                  b_k Vectors (Ang^-1) and Weights (Ang^2)                  |
 |                  ----------------------------------------                  |
 |            No.         b_k(x)      b_k(y)      b_k(z)        w_b           |
 |            ---        --------------------------------     --------        |
 |             1         0.285599    0.000000    0.000000     6.129932        |
 |             2        -0.285599    0.000000    0.000000     6.129932        |
 |             3         0.000000    0.628319    0.000000     1.266515        |
 |             4         0.000000    0.000000    0.628319     1.266515        |
 |             5         0.000000    0.000000   -0.628319     1.266515        |
 |             6         0.000000   -0.628319    0.000000     1.266515        |
 +----------------------------------------------------------------------------+
 |                           b_k Directions (Ang^-1)                          |
 |                           -----------------------                          |
 |            No.           x           y           z                         |
 |            ---        --------------------------------                     |
 |             1         0.285599    0.000000    0.000000                     |
 |             2         0.000000    0.628319    0.000000                     |
 |             3         0.000000    0.000000    0.628319                     |
 +----------------------------------------------------------------------------+
  
 +----------------------------------------------------------------------------+
 |        Gamma-point: number of the b-vectors is reduced by half             |
 +----------------------------------------------------------------------------+
 |                  b_k Vectors (Ang^-1) and Weights (Ang^2)                  |
 |                  ----------------------------------------                  |
 |            No.         b_k(x)      b_k(y)      b_k(z)        w_b           |
 |            ---        --------------------------------     --------        |
 |             1         0.285599    0.000000    0.000000    12.259863        |
 |             2         0.000000    0.628319    0.000000     2.533030        |
 |             3         0.000000    0.000000    0.628319     2.533030        |
 +----------------------------------------------------------------------------+
  
 Time to get kmesh              0.080 (sec)
 Time to project overlaps       0.003 (sec)
 
 *------------------------------- WANNIERISE ---------------------------------*
 +--------------------------------------------------------------------+<-- CONV
 | Iter  Delta Spread     RMS Gradient      Spread (Ang^2)      Time  |<-- CONV
 +--------------------------------------------------------------------+<-- CONV
 
 ------------------------------------------------------------------------------
 Initial State
  WF centre and spread    1  (  9.214212,  5.000000,  5.000000 )     0.61497178
  WF centre and spread    2  ( 10.268774,  5.000000,  5.000000 )     0.56884041
  WF centre and spread    3  (-10.268774,  5.000000,  5.000000 )     0.56884041
  WF centre and spread    4  ( -9.214212,  5.000000,  5.000000 )     0.61497178
  Sum of centres and spreads ( -0.000000, 20.000000, 20.000000 )     2.36762439
 
      0     0.237E+01                         2.3676243930      26.19  <-- CONV
        O_D=      0.0000000 O_OD=      0.0630998 O_TOT=      2.3676244 <-- SPRD
 ------------------------------------------------------------------------------
 Cycle:      1
  WF centre and spread    1  (  9.208696,  5.000000,  5.000000 )     0.59229332
  WF centre and spread    2  ( 10.263473,  5.000000,  5.000000 )     0.56173934
  WF centre and spread    3  (-10.263460,  5.000000,  5.000000 )     0.56200710
  WF centre and spread    4  ( -9.208696,  5.000000,  5.000000 )     0.59227965
  Sum of centres and spreads (  0.000013, 20.000000, 20.000000 )     2.30831940
 
      1    -0.593E-01                         2.3083194010      26.20  <-- CONV
        O_D=      0.0000000 O_OD=      0.0037948 O_TOT=      2.3083194 <-- SPRD
 Delta: O_D=  0.0000000E+00 O_OD= -0.5930499E-01 O_TOT= -0.5930499E-01 <-- DLTA
 ------------------------------------------------------------------------------
 Cycle:      2
  WF centre and spread    1  (  9.208697,  5.000000,  5.000000 )     0.59227154
  WF centre and spread    2  ( 10.263466,  5.000000,  5.000000 )     0.56188595
  WF centre and spread    3  (-10.263466,  5.000000,  5.000000 )     0.56188598
  WF centre and spread    4  ( -9.208697,  5.000000,  5.000000 )     0.59227196
  Sum of centres and spreads (  0.000000, 20.000000, 20.000000 )     2.30831544
 
      2    -0.396E-05                         2.3083154418      26.20  <-- CONV
        O_D=      0.0000000 O_OD=      0.0037908 O_TOT=      2.3083154 <-- SPRD
 Delta: O_D=  0.0000000E+00 O_OD= -0.3959202E-05 O_TOT= -0.3959202E-05 <-- DLTA
 ------------------------------------------------------------------------------
 Cycle:      3
  WF centre and spread    1  (  9.208697,  5.000000,  5.000000 )     0.59227195
  WF centre and spread    2  ( 10.263466,  5.000000,  5.000000 )     0.56188577
  WF centre and spread    3  (-10.263466,  5.000000,  5.000000 )     0.56188576
  WF centre and spread    4  ( -9.208697,  5.000000,  5.000000 )     0.59227196
  Sum of centres and spreads (  0.000000, 20.000000, 20.000000 )     2.30831544
 
      3    -0.547E-10                         2.3083154418      26.20  <-- CONV
        O_D=      0.0000000 O_OD=      0.0037908 O_TOT=      2.3083154 <-- SPRD
 Delta: O_D=  0.0000000E+00 O_OD= -0.5466916E-10 O_TOT= -0.5466916E-10 <-- DLTA
 ------------------------------------------------------------------------------
 Cycle:      4
  WF centre and spread    1  (  9.208697,  5.000000,  5.000000 )     0.59227196
  WF centre and spread    2  ( 10.263466,  5.000000,  5.000000 )     0.56188576
  WF centre and spread    3  (-10.263466,  5.000000,  5.000000 )     0.56188576
  WF centre and spread    4  ( -9.208697,  5.000000,  5.000000 )     0.59227196
  Sum of centres and spreads (  0.000000, 20.000000, 20.000000 )     2.30831544
 
      4     0.000E+00                         2.3083154418      26.20  <-- CONV
        O_D=      0.0000000 O_OD=      0.0037908 O_TOT=      2.3083154 <-- SPRD
 Delta: O_D=  0.0000000E+00 O_OD=  0.0000000E+00 O_TOT=  0.0000000E+00 <-- DLTA
 ------------------------------------------------------------------------------
 Cycle:      5
  WF centre and spread    1  (  9.208697,  5.000000,  5.000000 )     0.59227196
  WF centre and spread    2  ( 10.263466,  5.000000,  5.000000 )     0.56188576
  WF centre and spread    3  (-10.263466,  5.000000,  5.000000 )     0.56188576
  WF centre and spread    4  ( -9.208697,  5.000000,  5.000000 )     0.59227196
  Sum of centres and spreads (  0.000000, 20.000000, 20.000000 )     2.30831544
 
      5     0.000E+00                         2.3083154418      26.22  <-- CONV
        O_D=      0.0000000 O_OD=      0.0037908 O_TOT=      2.3083154 <-- SPRD
 Delta: O_D=  0.0000000E+00 O_OD=  0.0000000E+00 O_TOT=  0.0000000E+00 <-- DLTA
 ------------------------------------------------------------------------------
 Cycle:      6
  WF centre and spread    1  (  9.208697,  5.000000,  5.000000 )     0.59227196
  WF centre and spread    2  ( 10.263466,  5.000000,  5.000000 )     0.56188576
  WF centre and spread    3  (-10.263466,  5.000000,  5.000000 )     0.56188576
  WF centre and spread    4  ( -9.208697,  5.000000,  5.000000 )     0.59227196
  Sum of centres and spreads (  0.000000, 20.000000, 20.000000 )     2.30831544
 
      6     0.000E+00                         2.3083154418      26.22  <-- CONV
        O_D=      0.0000000 O_OD=      0.0037908 O_TOT=      2.3083154 <-- SPRD
 Delta: O_D=  0.0000000E+00 O_OD=  0.0000000E+00 O_TOT=  0.0000000E+00 <-- DLTA
 ------------------------------------------------------------------------------
 Cycle:      7
  WF centre and spread    1  (  9.208697,  5.000000,  5.000000 )     0.59227196
  WF centre and spread    2  ( 10.263466,  5.000000,  5.000000 )     0.56188576
  WF centre and spread    3  (-10.263466,  5.000000,  5.000000 )     0.56188576
  WF centre and spread    4  ( -9.208697,  5.000000,  5.000000 )     0.59227196
  Sum of centres and spreads (  0.000000, 20.000000, 20.000000 )     2.30831544
 
      7     0.000E+00                         2.3083154418      26.22  <-- CONV
        O_D=      0.0000000 O_OD=      0.0037908 O_TOT=      2.3083154 <-- SPRD
 Delta: O_D=  0.0000000E+00 O_OD=  0.0000000E+00 O_TOT=  0.0000000E+00 <-- DLTA
 ------------------------------------------------------------------------------

             <<<     Delta < 1.000E-10  over  5 iterations     >>>
             <<< Wannierisation convergence criteria satisfied >>>

 Final State
  WF centre and spread    1  (  9.208697,  5.000000,  5.000000 )     0.59227196
  WF centre and spread    2  ( 10.263466,  5.000000,  5.000000 )     0.56188576
  WF centre and spread    3  (-10.263466,  5.000000,  5.000000 )     0.56188576
  WF centre and spread    4  ( -9.208697,  5.000000,  5.000000 )     0.59227196
  Sum of centres and spreads (  0.000000, 20.000000, 20.000000 )     2.30831544
 
         Spreads (Ang^2)       Omega I      =     2.304524609
        ================       Omega D      =     0.000000000
                               Omega OD     =     0.003790833
    Final Spread (Ang^2)       Omega Total  =     2.308315442
 ------------------------------------------------------------------------------

 Writing checkpoint file H4.chk... done

 Time for wannierise            0.040 (sec)
 Total Execution Time           0.154 (sec)

 *===========================================================================*
 |                             TIMING INFORMATION                            |
 *===========================================================================*
 |    Tag                                                Ncalls      Time (s)|
 |---------------------------------------------------------------------------|
 |kmesh: get                                        :         2         0.085|
 |wann: main_gamma                                  :         1         0.029|
 *---------------------------------------------------------------------------*
 
 All done: wannier90 exiting
