#INFO: **** input file is /tigress/xingz/pydmfet/examples/research/O2-graphene.py ****
from pydmfet import locints, sdmfet,oep,tools,dfet_ao
from pydmfet.qcwrap.pyscf_rks_ao import rks_ao
from pyscf import gto, scf, ao2mo
import numpy as np
from pyscf.tools import molden
import time
from pydmfet import dfet_ao
from pydmfet.dfet_ao import dfet
from read_umat import read_umat

bas ='6-31G*'
temp = 0.005


mol = gto.Mole()
mol.atom = open('O2-graphene.xyz').read()
mol.basis = bas
mol.charge = 0
mol.build(max_memory = 24000, verbose=4)


#mf = scf.UKS(mol)
mf = rks_ao(mol,smear_sigma = temp)
mf.xc = "hf"
mf.max_cycle = 50
DMguess = None
mf.scf(dm0=DMguess)

with open( 'MO.molden', 'w' ) as thefile:
    molden.header(mf.mol, thefile)
    molden.orbital_coeff(mf.mol, thefile, mf.mo_coeff,occ = mf.mo_occ)
#INFO: ******************** input file end ********************


System: uname_result(system='Linux', node='tigercpu.princeton.edu', release='3.10.0-957.27.2.el7.x86_64', version='#1 SMP Tue Jul 30 11:12:20 EDT 2019', machine='x86_64', processor='x86_64')  Threads 40
Python 3.7.0 (default, Jun 28 2018, 13:15:42) 
[GCC 7.2.0]
numpy 1.16.4  scipy 1.4.0.dev0+0f78e0f
Date: Tue Sep 10 18:19:35 2019
PySCF version 1.5
PySCF path  /home/xingz/.local/lib/python3.7/site-packages/pyscf

[CONFIG] conf_file None
[INPUT] verbose = 4
[INPUT] num. atoms = 48
[INPUT] num. electrons = 222
[INPUT] charge = 0
[INPUT] spin (= nelec alpha-beta = 2S) = 0
[INPUT] symmetry False subgroup None
[INPUT] Mole.unit = angstrom
[INPUT]  1 O      1.832205000000  -1.057825000000   1.300000000000 AA    3.462365654059  -1.998999537718   2.456643961935 Bohr
[INPUT]  2 O      0.610735000000   1.057825000000   1.300000000000 AA    1.154121884686   1.998999537718   2.456643961935 Bohr
[INPUT]  3 C      1.221470000000   0.705220000000   0.000000000000 AA    2.308243769372   1.332672657566   0.000000000000 Bohr
[INPUT]  4 C      1.221470000000  -0.705220000000   0.000000000000 AA    2.308243769372  -1.332672657566   0.000000000000 Bohr
[INPUT]  5 C      0.000000000000  -1.410430000000   0.000000000000 AA    0.000000000000  -2.665326417870   0.000000000000 Bohr
[INPUT]  6 C     -1.221470000000  -0.705220000000   0.000000000000 AA   -2.308243769372  -1.332672657566   0.000000000000 Bohr
[INPUT]  7 C     -1.221470000000   0.705220000000   0.000000000000 AA   -2.308243769372   1.332672657566   0.000000000000 Bohr
[INPUT]  8 C      0.000000000000   1.410430000000   0.000000000000 AA    0.000000000000   2.665326417870   0.000000000000 Bohr
[INPUT]  9 C      2.442940000000   1.410430000000   0.000000000000 AA    4.616487538745   2.665326417870   0.000000000000 Bohr
[INPUT] 10 C      3.664760000000   0.706140000000   0.000000000000 AA    6.925392712261   1.334411205600   0.000000000000 Bohr
[INPUT] 11 C      3.664760000000  -0.706140000000   0.000000000000 AA    6.925392712261  -1.334411205600   0.000000000000 Bohr
[INPUT] 12 C      2.442940000000  -1.410430000000   0.000000000000 AA    4.616487538745  -2.665326417870   0.000000000000 Bohr
[INPUT] 13 C      2.443910000000  -2.820710000000   0.000000000000 AA    4.618320573086  -5.330369376822   0.000000000000 Bohr
[INPUT] 14 C      0.000000000000  -2.820870000000   0.000000000000 AA    0.000000000000  -5.330671733002   0.000000000000 Bohr
[INPUT] 15 C     -2.442940000000  -1.410430000000   0.000000000000 AA   -4.616487538745  -2.665326417870   0.000000000000 Bohr
[INPUT] 16 C     -2.442940000000   1.410430000000   0.000000000000 AA   -4.616487538745   2.665326417870   0.000000000000 Bohr
[INPUT] 17 C      0.000000000000   2.820870000000   0.000000000000 AA    0.000000000000   5.330671733002   0.000000000000 Bohr
[INPUT] 18 C      2.443910000000   2.820710000000   0.000000000000 AA    4.618320573086   5.330369376822   0.000000000000 Bohr
[INPUT] 19 C      4.887650000000   1.412940000000   0.000000000000 AA    9.236319892730   2.670069630443   0.000000000000 Bohr
[INPUT] 20 C      4.887650000000  -1.412940000000   0.000000000000 AA    9.236319892730  -2.670069630443   0.000000000000 Bohr
[INPUT] 21 C      1.220850000000   3.526840000000   0.000000000000 AA    2.307072139175   6.664761685161   0.000000000000 Bohr
[INPUT] 22 C     -1.220850000000   3.526840000000   0.000000000000 AA   -2.307072139175   6.664761685161   0.000000000000 Bohr
[INPUT] 23 C      3.667460000000   3.526360000000   0.000000000000 AA    6.930494972797   6.663854616621   0.000000000000 Bohr
[INPUT] 24 C      1.220850000000  -3.526840000000   0.000000000000 AA    2.307072139175  -6.664761685161   0.000000000000 Bohr
[INPUT] 25 C     -2.443910000000   2.820710000000   0.000000000000 AA   -4.618320573086   5.330369376822   0.000000000000 Bohr
[INPUT] 26 C      4.881230000000   2.818180000000   0.000000000000 AA    9.224187851011   5.325588369727   0.000000000000 Bohr
[INPUT] 27 C     -1.220850000000  -3.526840000000   0.000000000000 AA   -2.307072139175  -6.664761685161   0.000000000000 Bohr
[INPUT] 28 C     -3.664760000000   0.706140000000   0.000000000000 AA   -6.925392712261   1.334411205600   0.000000000000 Bohr
[INPUT] 29 C      3.667460000000  -3.526360000000   0.000000000000 AA    6.930494972797  -6.663854616621   0.000000000000 Bohr
[INPUT] 30 C      6.096720000000   0.699840000000   0.000000000000 AA   11.521131058158   1.322505931016   0.000000000000 Bohr
[INPUT] 31 C     -2.443910000000  -2.820710000000   0.000000000000 AA   -4.618320573086  -5.330369376822   0.000000000000 Bohr
[INPUT] 32 C     -3.664760000000  -0.706140000000   0.000000000000 AA   -6.925392712261  -1.334411205600   0.000000000000 Bohr
[INPUT] 33 C      4.881230000000  -2.818180000000   0.000000000000 AA    9.224187851011  -5.325588369727   0.000000000000 Bohr
[INPUT] 34 C      6.096720000000  -0.699840000000   0.000000000000 AA   11.521131058158  -1.322505931016   0.000000000000 Bohr
[INPUT] 35 H      5.820580000000   3.360510000000   0.000000000000 AA   10.999302086121   6.350443538862   0.000000000000 Bohr
[INPUT] 36 H      7.044400000000   1.225090000000   0.000000000000 AA   13.311986711886   2.315084577943   0.000000000000 Bohr
[INPUT] 37 H      5.820580000000  -3.360510000000   0.000000000000 AA   10.999302086121  -6.350443538862   0.000000000000 Bohr
[INPUT] 38 H      7.044400000000  -1.225090000000   0.000000000000 AA   13.311986711886  -2.315084577943   0.000000000000 Bohr
[INPUT] 39 H      1.220500000000   4.558840000000   0.000000000000 AA    2.306410735032   8.614959045712   0.000000000000 Bohr
[INPUT] 40 H     -1.220500000000   4.558840000000   0.000000000000 AA   -2.306410735032   8.614959045712   0.000000000000 Bohr
[INPUT] 41 H      3.670060000000   4.558360000000   0.000000000000 AA    6.935408260721   8.614051977172   0.000000000000 Bohr
[INPUT] 42 H      1.220500000000  -4.558840000000   0.000000000000 AA    2.306410735032  -8.614959045712   0.000000000000 Bohr
[INPUT] 43 H     -3.337820000000   3.336400000000   0.000000000000 AA   -6.307565653096   6.304882241999   0.000000000000 Bohr
[INPUT] 44 H     -1.220500000000  -4.558840000000   0.000000000000 AA   -2.306410735032  -8.614959045712   0.000000000000 Bohr
[INPUT] 45 H     -4.558320000000   1.222450000000   0.000000000000 AA   -8.613976388127   2.310095700975   0.000000000000 Bohr
[INPUT] 46 H      3.670060000000  -4.558360000000   0.000000000000 AA    6.935408260721  -8.614051977172   0.000000000000 Bohr
[INPUT] 47 H     -3.337820000000  -3.336400000000   0.000000000000 AA   -6.307565653096  -6.304882241999   0.000000000000 Bohr
[INPUT] 48 H     -4.558320000000  -1.222450000000   0.000000000000 AA   -8.613976388127  -2.310095700975   0.000000000000 Bohr

nuclear repulsion = 3395.56554220199
number of shells = 232
number of NR pGTOs = 974
number of NR cGTOs = 504
basis = 6-31G*
ecp = {}
CPU time:         4.80
rks_ao.ne_frozen =  0


******** <class 'pydmfet.qcwrap.pyscf_rks_ao.rks_ao'> flags ********
method = rks_ao-RKS-RHF
initial guess = minao
damping factor = 0
level shift factor = 0
DIIS = <class 'pyscf.scf.diis.CDIIS'>
DIIS start cycle = 1
DIIS space = 8
SCF tol = 1e-09
SCF gradient tol = None
max. SCF cycles = 50
direct_scf = False
chkfile to save SCF result = /tigress/xingz/pydmfet/examples/research/tmpgze3opiw
max_memory 24000 MB (current use 72 MB)
XC functionals = hf
small_rho_cutoff = 1e-07
radial grids: 
    Treutler-Ahlrichs (JCP 102, 346 (M4)) radial grids
    
becke partition: Becke, JCP, 88, 2547 (1988)
pruning grids: <function nwchem_prune at 0x2b032bfba400>
grids dens level: 3
symmetrized grids: False
atomic radii adjust function: <function treutler_atomic_radii_adjust at 0x2b032bfba378>
Set gradient conv threshold to 3.16228e-05
tot grids = 613724
init E= -1388.0971176654
HOMO:  -0.20558931442342504 LUMO:  -0.13072518635340638
Fermi energy:      -0.1669808746
[2.0000e+00 2.0000e+00 2.0000e+00 2.0000e+00 2.0000e+00 2.0000e+00
 2.0000e+00 2.0000e+00 2.0000e+00 2.0000e+00 2.0000e+00 2.0000e+00
 2.0000e+00 2.0000e+00 2.0000e+00 2.0000e+00 2.0000e+00 2.0000e+00
 2.0000e+00 2.0000e+00 2.0000e+00 2.0000e+00 2.0000e+00 2.0000e+00
 2.0000e+00 2.0000e+00 2.0000e+00 2.0000e+00 2.0000e+00 2.0000e+00
 2.0000e+00 2.0000e+00 2.0000e+00 2.0000e+00 2.0000e+00 2.0000e+00
 2.0000e+00 2.0000e+00 2.0000e+00 2.0000e+00 2.0000e+00 2.0000e+00
 2.0000e+00 2.0000e+00 2.0000e+00 2.0000e+00 2.0000e+00 2.0000e+00
 2.0000e+00 2.0000e+00 2.0000e+00 2.0000e+00 2.0000e+00 2.0000e+00
 2.0000e+00 2.0000e+00 2.0000e+00 2.0000e+00 2.0000e+00 2.0000e+00
 2.0000e+00 2.0000e+00 2.0000e+00 2.0000e+00 2.0000e+00 2.0000e+00
 2.0000e+00 2.0000e+00 2.0000e+00 2.0000e+00 2.0000e+00 2.0000e+00
 2.0000e+00 2.0000e+00 2.0000e+00 2.0000e+00 2.0000e+00 2.0000e+00
 2.0000e+00 2.0000e+00 2.0000e+00 2.0000e+00 2.0000e+00 2.0000e+00
 2.0000e+00 2.0000e+00 2.0000e+00 2.0000e+00 2.0000e+00 2.0000e+00
 2.0000e+00 2.0000e+00 2.0000e+00 2.0000e+00 2.0000e+00 2.0000e+00
 2.0000e+00 2.0000e+00 2.0000e+00 2.0000e+00 2.0000e+00 2.0000e+00
 2.0000e+00 2.0000e+00 2.0000e+00 2.0000e+00 2.0000e+00 2.0000e+00
 2.0000e+00 1.9995e+00 1.9991e+00 1.4177e-03]
entropy correction =  -0.00012199050117609658
cycle= 1 E= -1369.00168508252  delta_E= 19.1  |g|= 1.24  |ddm|=  8.9
HOMO:  -0.21255997237128352 LUMO:  0.01681723838189002
Fermi energy:      -0.0976918083
[2. 2. 2. 2. 2. 2. 2. 2. 2. 2. 2. 2. 2. 2. 2. 2. 2. 2. 2. 2. 2. 2. 2. 2.
 2. 2. 2. 2. 2. 2. 2. 2. 2. 2. 2. 2. 2. 2. 2. 2. 2. 2. 2. 2. 2. 2. 2. 2.
 2. 2. 2. 2. 2. 2. 2. 2. 2. 2. 2. 2. 2. 2. 2. 2. 2. 2. 2. 2. 2. 2. 2. 2.
 2. 2. 2. 2. 2. 2. 2. 2. 2. 2. 2. 2. 2. 2. 2. 2. 2. 2. 2. 2. 2. 2. 2. 2.
 2. 2. 2. 2. 2. 2. 2. 2. 2. 2. 2. 2. 2. 2. 2.]
entropy correction =  0.0
cycle= 2 E= -1369.33574627774  delta_E= -0.334  |g|= 0.791  |ddm|=  2.9
HOMO:  -0.23040213901865206 LUMO:  0.01764144695964616
Fermi energy:      -0.1058904203
[2. 2. 2. 2. 2. 2. 2. 2. 2. 2. 2. 2. 2. 2. 2. 2. 2. 2. 2. 2. 2. 2. 2. 2.
 2. 2. 2. 2. 2. 2. 2. 2. 2. 2. 2. 2. 2. 2. 2. 2. 2. 2. 2. 2. 2. 2. 2. 2.
 2. 2. 2. 2. 2. 2. 2. 2. 2. 2. 2. 2. 2. 2. 2. 2. 2. 2. 2. 2. 2. 2. 2. 2.
 2. 2. 2. 2. 2. 2. 2. 2. 2. 2. 2. 2. 2. 2. 2. 2. 2. 2. 2. 2. 2. 2. 2. 2.
 2. 2. 2. 2. 2. 2. 2. 2. 2. 2. 2. 2. 2. 2. 2.]
entropy correction =  0.0
cycle= 3 E= -1369.44827114079  delta_E= -0.113  |g|= 0.319  |ddm|=  1.3
HOMO:  -0.23543638287925944 LUMO:  0.020306491771297612
Fermi energy:      -0.1065301329
[2. 2. 2. 2. 2. 2. 2. 2. 2. 2. 2. 2. 2. 2. 2. 2. 2. 2. 2. 2. 2. 2. 2. 2.
 2. 2. 2. 2. 2. 2. 2. 2. 2. 2. 2. 2. 2. 2. 2. 2. 2. 2. 2. 2. 2. 2. 2. 2.
 2. 2. 2. 2. 2. 2. 2. 2. 2. 2. 2. 2. 2. 2. 2. 2. 2. 2. 2. 2. 2. 2. 2. 2.
 2. 2. 2. 2. 2. 2. 2. 2. 2. 2. 2. 2. 2. 2. 2. 2. 2. 2. 2. 2. 2. 2. 2. 2.
 2. 2. 2. 2. 2. 2. 2. 2. 2. 2. 2. 2. 2. 2. 2.]
entropy correction =  0.0
cycle= 4 E= -1369.4715804119  delta_E= -0.0233  |g|= 0.0342  |ddm|= 0.541
HOMO:  -0.23459551911171003 LUMO:  0.024181068745215008
Fermi energy:      -0.1037361441
[2. 2. 2. 2. 2. 2. 2. 2. 2. 2. 2. 2. 2. 2. 2. 2. 2. 2. 2. 2. 2. 2. 2. 2.
 2. 2. 2. 2. 2. 2. 2. 2. 2. 2. 2. 2. 2. 2. 2. 2. 2. 2. 2. 2. 2. 2. 2. 2.
 2. 2. 2. 2. 2. 2. 2. 2. 2. 2. 2. 2. 2. 2. 2. 2. 2. 2. 2. 2. 2. 2. 2. 2.
 2. 2. 2. 2. 2. 2. 2. 2. 2. 2. 2. 2. 2. 2. 2. 2. 2. 2. 2. 2. 2. 2. 2. 2.
 2. 2. 2. 2. 2. 2. 2. 2. 2. 2. 2. 2. 2. 2. 2.]
entropy correction =  0.0
cycle= 5 E= -1369.4722204137  delta_E= -0.00064  |g|= 0.0129  |ddm|= 0.0722
HOMO:  -0.2359324488506818 LUMO:  0.02446684358708804
Fermi energy:      -0.1040965114
[2. 2. 2. 2. 2. 2. 2. 2. 2. 2. 2. 2. 2. 2. 2. 2. 2. 2. 2. 2. 2. 2. 2. 2.
 2. 2. 2. 2. 2. 2. 2. 2. 2. 2. 2. 2. 2. 2. 2. 2. 2. 2. 2. 2. 2. 2. 2. 2.
 2. 2. 2. 2. 2. 2. 2. 2. 2. 2. 2. 2. 2. 2. 2. 2. 2. 2. 2. 2. 2. 2. 2. 2.
 2. 2. 2. 2. 2. 2. 2. 2. 2. 2. 2. 2. 2. 2. 2. 2. 2. 2. 2. 2. 2. 2. 2. 2.
 2. 2. 2. 2. 2. 2. 2. 2. 2. 2. 2. 2. 2. 2. 2.]
entropy correction =  0.0
cycle= 6 E= -1369.47241202387  delta_E= -0.000192  |g|= 0.00639  |ddm|= 0.0385
HOMO:  -0.23647803606812626 LUMO:  0.02513596251095806
Fermi energy:      -0.1046420986
[2. 2. 2. 2. 2. 2. 2. 2. 2. 2. 2. 2. 2. 2. 2. 2. 2. 2. 2. 2. 2. 2. 2. 2.
 2. 2. 2. 2. 2. 2. 2. 2. 2. 2. 2. 2. 2. 2. 2. 2. 2. 2. 2. 2. 2. 2. 2. 2.
 2. 2. 2. 2. 2. 2. 2. 2. 2. 2. 2. 2. 2. 2. 2. 2. 2. 2. 2. 2. 2. 2. 2. 2.
 2. 2. 2. 2. 2. 2. 2. 2. 2. 2. 2. 2. 2. 2. 2. 2. 2. 2. 2. 2. 2. 2. 2. 2.
 2. 2. 2. 2. 2. 2. 2. 2. 2. 2. 2. 2. 2. 2. 2.]
entropy correction =  0.0
cycle= 7 E= -1369.47246163388  delta_E= -4.96e-05  |g|= 0.00272  |ddm|= 0.0217
HOMO:  -0.23677321509133195 LUMO:  0.025143257191951682
Fermi energy:      -0.1039607151
[2. 2. 2. 2. 2. 2. 2. 2. 2. 2. 2. 2. 2. 2. 2. 2. 2. 2. 2. 2. 2. 2. 2. 2.
 2. 2. 2. 2. 2. 2. 2. 2. 2. 2. 2. 2. 2. 2. 2. 2. 2. 2. 2. 2. 2. 2. 2. 2.
 2. 2. 2. 2. 2. 2. 2. 2. 2. 2. 2. 2. 2. 2. 2. 2. 2. 2. 2. 2. 2. 2. 2. 2.
 2. 2. 2. 2. 2. 2. 2. 2. 2. 2. 2. 2. 2. 2. 2. 2. 2. 2. 2. 2. 2. 2. 2. 2.
 2. 2. 2. 2. 2. 2. 2. 2. 2. 2. 2. 2. 2. 2. 2.]
entropy correction =  0.0
cycle= 8 E= -1369.47247065861  delta_E= -9.02e-06  |g|= 0.0014  |ddm|= 0.00924
HOMO:  -0.23685630810053407 LUMO:  0.025235747497211847
Fermi energy:      -0.1040438081
[2. 2. 2. 2. 2. 2. 2. 2. 2. 2. 2. 2. 2. 2. 2. 2. 2. 2. 2. 2. 2. 2. 2. 2.
 2. 2. 2. 2. 2. 2. 2. 2. 2. 2. 2. 2. 2. 2. 2. 2. 2. 2. 2. 2. 2. 2. 2. 2.
 2. 2. 2. 2. 2. 2. 2. 2. 2. 2. 2. 2. 2. 2. 2. 2. 2. 2. 2. 2. 2. 2. 2. 2.
 2. 2. 2. 2. 2. 2. 2. 2. 2. 2. 2. 2. 2. 2. 2. 2. 2. 2. 2. 2. 2. 2. 2. 2.
 2. 2. 2. 2. 2. 2. 2. 2. 2. 2. 2. 2. 2. 2. 2.]
entropy correction =  0.0
cycle= 9 E= -1369.47247285351  delta_E= -2.19e-06  |g|= 0.000623  |ddm|= 0.00446
HOMO:  -0.23688703855483983 LUMO:  0.025221042201570246
Fermi energy:      -0.1040745386
[2. 2. 2. 2. 2. 2. 2. 2. 2. 2. 2. 2. 2. 2. 2. 2. 2. 2. 2. 2. 2. 2. 2. 2.
 2. 2. 2. 2. 2. 2. 2. 2. 2. 2. 2. 2. 2. 2. 2. 2. 2. 2. 2. 2. 2. 2. 2. 2.
 2. 2. 2. 2. 2. 2. 2. 2. 2. 2. 2. 2. 2. 2. 2. 2. 2. 2. 2. 2. 2. 2. 2. 2.
 2. 2. 2. 2. 2. 2. 2. 2. 2. 2. 2. 2. 2. 2. 2. 2. 2. 2. 2. 2. 2. 2. 2. 2.
 2. 2. 2. 2. 2. 2. 2. 2. 2. 2. 2. 2. 2. 2. 2.]
entropy correction =  0.0
cycle= 10 E= -1369.47247358727  delta_E= -7.34e-07  |g|= 0.000371  |ddm|= 0.00255
HOMO:  -0.23690158140060313 LUMO:  0.025219087987665232
Fermi energy:      -0.1040890814
[2. 2. 2. 2. 2. 2. 2. 2. 2. 2. 2. 2. 2. 2. 2. 2. 2. 2. 2. 2. 2. 2. 2. 2.
 2. 2. 2. 2. 2. 2. 2. 2. 2. 2. 2. 2. 2. 2. 2. 2. 2. 2. 2. 2. 2. 2. 2. 2.
 2. 2. 2. 2. 2. 2. 2. 2. 2. 2. 2. 2. 2. 2. 2. 2. 2. 2. 2. 2. 2. 2. 2. 2.
 2. 2. 2. 2. 2. 2. 2. 2. 2. 2. 2. 2. 2. 2. 2. 2. 2. 2. 2. 2. 2. 2. 2. 2.
 2. 2. 2. 2. 2. 2. 2. 2. 2. 2. 2. 2. 2. 2. 2.]
entropy correction =  0.0
cycle= 11 E= -1369.4724738971  delta_E= -3.1e-07  |g|= 0.000194  |ddm|= 0.00197
HOMO:  -0.23689626643324727 LUMO:  0.02521712557821589
Fermi energy:      -0.1040837664
[2. 2. 2. 2. 2. 2. 2. 2. 2. 2. 2. 2. 2. 2. 2. 2. 2. 2. 2. 2. 2. 2. 2. 2.
 2. 2. 2. 2. 2. 2. 2. 2. 2. 2. 2. 2. 2. 2. 2. 2. 2. 2. 2. 2. 2. 2. 2. 2.
 2. 2. 2. 2. 2. 2. 2. 2. 2. 2. 2. 2. 2. 2. 2. 2. 2. 2. 2. 2. 2. 2. 2. 2.
 2. 2. 2. 2. 2. 2. 2. 2. 2. 2. 2. 2. 2. 2. 2. 2. 2. 2. 2. 2. 2. 2. 2. 2.
 2. 2. 2. 2. 2. 2. 2. 2. 2. 2. 2. 2. 2. 2. 2.]
entropy correction =  0.0
cycle= 12 E= -1369.47247397872  delta_E= -8.16e-08  |g|= 0.0001  |ddm|= 0.00107
HOMO:  -0.2368928695241236 LUMO:  0.025218148401134143
Fermi energy:      -0.1040803695
[2. 2. 2. 2. 2. 2. 2. 2. 2. 2. 2. 2. 2. 2. 2. 2. 2. 2. 2. 2. 2. 2. 2. 2.
 2. 2. 2. 2. 2. 2. 2. 2. 2. 2. 2. 2. 2. 2. 2. 2. 2. 2. 2. 2. 2. 2. 2. 2.
 2. 2. 2. 2. 2. 2. 2. 2. 2. 2. 2. 2. 2. 2. 2. 2. 2. 2. 2. 2. 2. 2. 2. 2.
 2. 2. 2. 2. 2. 2. 2. 2. 2. 2. 2. 2. 2. 2. 2. 2. 2. 2. 2. 2. 2. 2. 2. 2.
 2. 2. 2. 2. 2. 2. 2. 2. 2. 2. 2. 2. 2. 2. 2.]
entropy correction =  0.0
cycle= 13 E= -1369.47247399865  delta_E= -1.99e-08  |g|= 5.5e-05  |ddm|= 0.000512
HOMO:  -0.23689285511499664 LUMO:  0.02521647348313258
Fermi energy:      -0.1040803551
[2. 2. 2. 2. 2. 2. 2. 2. 2. 2. 2. 2. 2. 2. 2. 2. 2. 2. 2. 2. 2. 2. 2. 2.
 2. 2. 2. 2. 2. 2. 2. 2. 2. 2. 2. 2. 2. 2. 2. 2. 2. 2. 2. 2. 2. 2. 2. 2.
 2. 2. 2. 2. 2. 2. 2. 2. 2. 2. 2. 2. 2. 2. 2. 2. 2. 2. 2. 2. 2. 2. 2. 2.
 2. 2. 2. 2. 2. 2. 2. 2. 2. 2. 2. 2. 2. 2. 2. 2. 2. 2. 2. 2. 2. 2. 2. 2.
 2. 2. 2. 2. 2. 2. 2. 2. 2. 2. 2. 2. 2. 2. 2.]
entropy correction =  0.0
cycle= 14 E= -1369.47247400402  delta_E= -5.36e-09  |g|= 2.42e-05  |ddm|= 0.000304
HOMO:  -0.2368919174507641 LUMO:  0.025217629708964608
Fermi energy:      -0.1040794175
[2. 2. 2. 2. 2. 2. 2. 2. 2. 2. 2. 2. 2. 2. 2. 2. 2. 2. 2. 2. 2. 2. 2. 2.
 2. 2. 2. 2. 2. 2. 2. 2. 2. 2. 2. 2. 2. 2. 2. 2. 2. 2. 2. 2. 2. 2. 2. 2.
 2. 2. 2. 2. 2. 2. 2. 2. 2. 2. 2. 2. 2. 2. 2. 2. 2. 2. 2. 2. 2. 2. 2. 2.
 2. 2. 2. 2. 2. 2. 2. 2. 2. 2. 2. 2. 2. 2. 2. 2. 2. 2. 2. 2. 2. 2. 2. 2.
 2. 2. 2. 2. 2. 2. 2. 2. 2. 2. 2. 2. 2. 2. 2.]
entropy correction =  0.0
cycle= 15 E= -1369.47247400483  delta_E= -8.1e-10  |g|= 1.19e-05  |ddm|= 0.00011
HOMO:  -0.23689197421265118 LUMO:  0.025217291000429815
Fermi energy:      -0.1040794742
[2. 2. 2. 2. 2. 2. 2. 2. 2. 2. 2. 2. 2. 2. 2. 2. 2. 2. 2. 2. 2. 2. 2. 2.
 2. 2. 2. 2. 2. 2. 2. 2. 2. 2. 2. 2. 2. 2. 2. 2. 2. 2. 2. 2. 2. 2. 2. 2.
 2. 2. 2. 2. 2. 2. 2. 2. 2. 2. 2. 2. 2. 2. 2. 2. 2. 2. 2. 2. 2. 2. 2. 2.
 2. 2. 2. 2. 2. 2. 2. 2. 2. 2. 2. 2. 2. 2. 2. 2. 2. 2. 2. 2. 2. 2. 2. 2.
 2. 2. 2. 2. 2. 2. 2. 2. 2. 2. 2. 2. 2. 2. 2.]
entropy correction =  0.0
Extra cycle  E= -1369.47247400494  delta_E= -1.14e-10  |g|= 8.68e-06  |ddm|= 3.08e-05
converged SCF energy = -1369.47247400494
<class 'pydmfet.qcwrap.pyscf_rks_ao.rks_ao'> does not have attributes  coredm ne_frozen add_coredm_ext_energy dm_guess vext_1e
