#INFO: **** input file is /tigress/xingz/pydmfet/examples/research/Al12/Al12.py ****
from pydmfet import locints, sdmfet, oep, tools, dfet_ao, proj_ao
from pydmfet.dfet_ao import dfet
from pydmfet.qcwrap.pyscf_rks_ao import rks_ao
from pyscf import gto, scf,dft, ao2mo,cc
import numpy as np
from pyscf.tools import molden, cubegen
import copy,time
from pydmfet.tools.sym import h_lattice_sym_tab

bas = 'stuttgartdz'
ecp = 'stuttgartdz'
temp = 0.005


mol = gto.Mole()
mol.atom = open('Al12.xyz').read()
mol.basis = bas
mol.ecp = ecp
mol.charge = 0
mol.build(max_memory = 4000, verbose=4)

mf = rks_ao(mol,smear_sigma = temp)
mf.xc = 'pbe,pbe'
mf.max_cycle = 50
mf.scf(dm0=None)

natoms = mol.natm
impAtom = np.zeros([natoms], dtype=int)
for i in range(6):
    impAtom[i] = 1


embed = proj_ao.proj_embed(mf,impAtom, Ne_env = 12)
#embed.lo_method = 'boys'
embed.pop_method = 'meta_lowdin'
embed.pm_exponent = 2
embed.make_frozen_orbs(norb = 12)
embed.embedding_potential()

#INFO: ******************** input file end ********************


System: uname_result(system='Linux', node='tigercpu.princeton.edu', release='3.10.0-957.27.2.el7.x86_64', version='#1 SMP Tue Jul 30 11:12:20 EDT 2019', machine='x86_64', processor='x86_64')  Threads 40
Python 3.7.0 (default, Jun 28 2018, 13:15:42) 
[GCC 7.2.0]
numpy 1.16.4  scipy 1.4.0.dev0+0f78e0f
Date: Thu Aug 15 17:59:33 2019
PySCF version 1.5
PySCF path  /home/xingz/.local/lib/python3.7/site-packages/pyscf

[CONFIG] conf_file None
[INPUT] verbose = 4
[INPUT] num. atoms = 12
[INPUT] num. electrons = 36
[INPUT] charge = 0
[INPUT] spin (= nelec alpha-beta = 2S) = 0
[INPUT] symmetry False subgroup None
[INPUT] Mole.unit = angstrom
[INPUT]  1 Al     8.092960000000   4.046480000000  -0.000000000000 AA   15.293477937060   7.646738968530  -0.000000000000 Bohr
[INPUT]  2 Al     8.092960000000   6.069720000000  -2.023240000000 AA   15.293477937060  11.470108452795  -3.823369484265 Bohr
[INPUT]  3 Al    10.116200000000   4.046480000000  -2.023240000000 AA   19.116847421325   7.646738968530  -3.823369484265 Bohr
[INPUT]  4 Al     6.069720000000   4.046480000000  -2.023240000000 AA   11.470108452795   7.646738968530  -3.823369484265 Bohr
[INPUT]  5 Al     8.092960000000   2.023240000000  -2.023240000000 AA   15.293477937060   3.823369484265  -3.823369484265 Bohr
[INPUT]  6 Al     8.092960000000   4.046480000000  -4.046480000000 AA   15.293477937060   7.646738968530  -7.646738968530 Bohr
[INPUT]  7 Al     6.069720000000   6.069720000000  -0.000000000000 AA   11.470108452795  11.470108452795  -0.000000000000 Bohr
[INPUT]  8 Al    10.116200000000   2.023240000000  -0.000000000000 AA   19.116847421325   3.823369484265  -0.000000000000 Bohr
[INPUT]  9 Al    10.116200000000   6.069720000000  -4.046480000000 AA   19.116847421325  11.470108452795  -7.646738968530 Bohr
[INPUT] 10 Al     6.069720000000   2.023240000000  -0.000000000000 AA   11.470108452795   3.823369484265  -0.000000000000 Bohr
[INPUT] 11 Al     6.069720000000   6.069720000000  -4.046480000000 AA   11.470108452795  11.470108452795  -7.646738968530 Bohr
[INPUT] 12 Al    10.116200000000   2.023240000000  -4.046480000000 AA   19.116847421325   3.823369484265  -7.646738968530 Bohr

nuclear repulsion = 84.8573926838199
number of shells = 48
number of NR pGTOs = 192
number of NR cGTOs = 96
basis = stuttgartdz
ecp = stuttgartdz
CPU time:         4.68
rks_ao.ne_frozen =  0


******** <class 'pydmfet.qcwrap.pyscf_rks_ao.rks_ao'> flags ********
method = rks_ao-RKS-RHF
initial guess = minao
damping factor = 0
level shift factor = 0
DIIS = <class 'pyscf.scf.diis.CDIIS'>
DIIS start cycle = 1
DIIS space = 8
SCF tol = 1e-09
SCF gradient tol = None
max. SCF cycles = 50
direct_scf = False
chkfile to save SCF result = /tigress/xingz/pydmfet/examples/research/Al12/tmptihnla8m
max_memory 4000 MB (current use 70 MB)
XC functionals = pbe,pbe
small_rho_cutoff = 1e-07
radial grids: 
    Treutler-Ahlrichs (JCP 102, 346 (M4)) radial grids
    
becke partition: Becke, JCP, 88, 2547 (1988)
pruning grids: <function nwchem_prune at 0x2b99e1e12400>
grids dens level: 3
symmetrized grids: False
atomic radii adjust function: <function treutler_atomic_radii_adjust at 0x2b99e1e12378>
Set gradient conv threshold to 3.16228e-05
tot grids = 220800
init E= -21.344783658299
HOMO:  -0.09640875247665455 LUMO:  -0.08910626015728006
Fermi energy:      -0.0887572500
[2.     2.     2.     2.     2.     2.     2.     2.     2.     2.
 2.     2.     1.9995 1.9096 1.7557 1.7557 1.6441 1.6441 1.0349 0.2163
 0.02   0.02  ]
entropy correction =  -0.030126402950577634
cycle= 1 E= -24.0317931641736  delta_E= -2.69  |g|= 0.653  |ddm|= 6.67
HOMO:  -0.23116268121406605 LUMO:  -0.23116268121406575
Fermi energy:      -0.2358858179
[2.     2.     2.     2.     2.     2.     2.     2.     2.     2.
 2.     2.     2.     1.9989 1.9981 1.9981 1.9963 0.5599 0.5599 0.4393
 0.4393 0.0101]
entropy correction =  -0.02303933511033818
cycle= 2 E= -22.7589412406574  delta_E= 1.27  |g|= 1.61  |ddm|= 4.31
HOMO:  -0.1864794289436314 LUMO:  -0.1755152171500876
Fermi energy:      -0.1766937420
[2.     2.     2.     2.     2.     2.     2.     2.     2.     2.
 2.     2.     1.9995 1.9702 1.7766 1.7766 1.7524 1.7524 0.8827 0.0807
 0.0044 0.0044]
entropy correction =  -0.0241529794266433
cycle= 3 E= -24.1577819172465  delta_E= -1.4  |g|= 0.177  |ddm|= 3.48
HOMO:  -0.16723309364643146 LUMO:  -0.1666821958428702
Fermi energy:      -0.1626445453
[2.     2.     2.     2.     2.     2.     2.     2.     2.     2.
 2.     2.     1.9999 1.922  1.8341 1.8341 1.4292 1.4292 1.3832 0.1196
 0.0244 0.0244]
entropy correction =  -0.02909239307910479
cycle= 4 E= -24.1758252844605  delta_E= -0.018  |g|= 0.0887  |ddm|= 0.83
HOMO:  -0.16913270192196844 LUMO:  -0.16476599946436912
Fermi energy:      -0.1627185946
[2.     2.     2.     2.     2.     2.     2.     2.     2.     2.
 2.     2.     1.9998 1.9364 1.7964 1.7964 1.5659 1.5659 1.2019 0.1144
 0.0115 0.0115]
entropy correction =  -0.028086981458220972
cycle= 5 E= -24.18315480673  delta_E= -0.00733  |g|= 0.00917  |ddm|= 0.293
HOMO:  -0.17049749264554054 LUMO:  -0.16611814497694402
Fermi energy:      -0.1641279001
[2.     2.     2.     2.     2.     2.     2.     2.     2.     2.
 2.     2.     1.9999 1.9389 1.802  1.802  1.5628 1.5628 1.1964 0.1103
 0.0124 0.0124]
entropy correction =  -0.027959636151679707
cycle= 6 E= -24.1832343125346  delta_E= -7.95e-05  |g|= 0.00113  |ddm|= 0.0422
HOMO:  -0.17058528293726383 LUMO:  -0.16630331880958518
Fermi energy:      -0.1642599608
[2.     2.     2.     2.     2.     2.     2.     2.     2.     2.
 2.     2.     1.9999 1.9387 1.8025 1.8025 1.5598 1.5598 1.2015 0.1105
 0.0124 0.0124]
entropy correction =  -0.02798324295238186
cycle= 7 E= -24.1832355473261  delta_E= -1.23e-06  |g|= 0.000895  |ddm|= 0.00747
HOMO:  -0.1705473183301233 LUMO:  -0.16621690815491844
Fermi energy:      -0.1641961314
[2.     2.     2.     2.     2.     2.     2.     2.     2.     2.
 2.     2.     1.9999 1.9385 1.8018 1.8018 1.5616 1.5616 1.1994 0.1109
 0.0124 0.0124]
entropy correction =  -0.027989021489005263
cycle= 8 E= -24.183236196683  delta_E= -6.49e-07  |g|= 7.71e-05  |ddm|= 0.00356
HOMO:  -0.17053508515496152 LUMO:  -0.16621147282032686
Fermi energy:      -0.1641878969
[2.     2.     2.     2.     2.     2.     2.     2.     2.     2.
 2.     2.     1.9999 1.9385 1.8019 1.8019 1.5613 1.5613 1.1996 0.1108
 0.0124 0.0124]
entropy correction =  -0.02798838938789549
cycle= 9 E= -24.1832362061523  delta_E= -9.47e-09  |g|= 2.11e-05  |ddm|= 0.000544
HOMO:  -0.17053203701156583 LUMO:  -0.16620777273044793
Fermi energy:      -0.1641845192
[2.     2.     2.     2.     2.     2.     2.     2.     2.     2.
 2.     2.     1.9999 1.9385 1.8019 1.8019 1.5613 1.5613 1.1996 0.1108
 0.0124 0.0124]
entropy correction =  -0.027988113609474563
cycle= 10 E= -24.1832362064488  delta_E= -2.96e-10  |g|= 3.03e-06  |ddm|= 6.6e-05
HOMO:  -0.17053311708917393 LUMO:  -0.1662088500126056
Fermi energy:      -0.1641855888
[2.     2.     2.     2.     2.     2.     2.     2.     2.     2.
 2.     2.     1.9999 1.9385 1.8019 1.8019 1.5613 1.5613 1.1996 0.1108
 0.0124 0.0124]
entropy correction =  -0.027988123737035187
Extra cycle  E= -24.1832362064464  delta_E= 2.4e-12  |g|= 3.71e-06  |ddm|= 1.75e-05
converged SCF energy = -24.1832362064464


******** <class 'pyscf.lo.pipek.PipekMezey'> flags ********
conv_tol = 1e-06
conv_tol_grad = None
max_cycle = 100
max_stepsize = 0.05
max_iters = 20
kf_interval = 5
kf_trust_region = 5
ah_start_tol = 1000000000.0
ah_start_cycle = 1
ah_level_shift = 0
ah_conv_tol = 1e-12
ah_lindep = 1e-14
ah_max_cycle = 40
ah_trust_region = 3
init_guess = atomic
pop_method = meta_lowdin
Set conv_tol_grad to 0.000316228
macro= 1  f(x)= 2.2249158858565  delta_f= 2.22492  |g|= 0.449871  4 KF 21 Hx
macro= 2  f(x)= 2.7696126109776  delta_f= 0.544697  |g|= 0.383149  4 KF 21 Hx
macro= 3  f(x)= 3.5580084568035  delta_f= 0.788396  |g|= 0.517335  4 KF 21 Hx
macro= 4  f(x)= 3.8204144023869  delta_f= 0.262406  |g|= 0.210628  3 KF 10 Hx
macro= 5  f(x)= 3.840373862903  delta_f= 0.0199595  |g|= 0.153162  2 KF 3 Hx
macro= 6  f(x)= 3.840890852821  delta_f= 0.00051699  |g|= 0.000154997  2 KF 5 Hx
macro= 7  f(x)= 3.8408908528213  delta_f= 3.49054e-13  |g|= 8.12548e-06  1 KF 1 Hx
macro X = 7  f(x)= 3.8408908528213  |g|= 8.12548e-06  14 intor 20 KF 82 Hx
  sorted Mulliken popupaltion: 1.0 for fully occupied
9.788409e-01 9.784639e-01 9.784639e-01 7.660618e-01 7.660613e-01 
7.644265e-01 1.329198e-01 1.154945e-01 1.154944e-01 1.154942e-01 
1.154934e-01 1.029100e-01 
 6 enviroment orbitals kept frozen.
rks_ao.ne_frozen =  12
Set gradient conv threshold to 3.16228e-05
tot grids = 220800
init E= -24.6304276809678
HOMO:  -0.17053270563661713 LUMO:  -0.1662087255712422
Fermi energy:      -0.1641853186
[2.     2.     2.     2.     2.     2.     1.9999 1.9385 1.8019 1.8019
 1.5613 1.5613 1.1996 0.1108 0.0124 0.0124]
entropy correction =  -0.027987924394650865
cycle= 1 E= -24.1832397231503  delta_E= 0.447  |g|= 2e-05  |ddm|= 0.000176
HOMO:  -0.17053635118373336 LUMO:  -0.1662136321637364
Fermi energy:      -0.1641895572
[2.     2.     2.     2.     2.     2.     1.9999 1.9385 1.8019 1.8019
 1.5613 1.5613 1.1997 0.1108 0.0124 0.0124]
entropy correction =  -0.027987875984438908
cycle= 2 E= -24.1832397225207  delta_E= 6.3e-10  |g|= 4.44e-05  |ddm|= 0.000113
HOMO:  -0.17053527602757376 LUMO:  -0.1662113535840089
Fermi energy:      -0.1641879110
[2.     2.     2.     2.     2.     2.     1.9999 1.9385 1.8019 1.8019
 1.5613 1.5613 1.1996 0.1108 0.0124 0.0124]
entropy correction =  -0.02798776101094983
cycle= 3 E= -24.1832397231961  delta_E= -6.75e-10  |g|= 5.82e-06  |ddm|= 8.5e-05
HOMO:  -0.1705348316510424 LUMO:  -0.166211336725512
Fermi energy:      -0.1641876799
[2.     2.     2.     2.     2.     2.     1.9999 1.9385 1.8019 1.8019
 1.5613 1.5613 1.1996 0.1108 0.0124 0.0124]
entropy correction =  -0.02798789143481074
Extra cycle  E= -24.1832397228829  delta_E= 3.13e-10  |g|= 3.13e-05  |ddm|= 5.86e-05
<class 'pydmfet.qcwrap.pyscf_rks_ao.rks_ao'> does not have attributes  vext_1e dm_guess ne_frozen coredm add_coredm_ext_energy
entropy correction =  -0.02798789143481074
level shift energy: 3.556747823832418e-07
|P_frag + P_bath - P_ref| / N =  1.748706672162858e-06
max(P_frag + P_bath - P_ref) =  1.040482188631453e-05
