#INFO: **** input file is /tigress/xingz/pydmfet/examples/research/Al12/Al12.py ****
from pydmfet import locints, sdmfet, oep, tools, dfet_ao, proj_ao
from pydmfet.dfet_ao import dfet
from pydmfet.qcwrap.pyscf_rks_ao import rks_ao
from pyscf import gto, scf,dft, ao2mo,cc
import numpy as np
from pyscf.tools import molden, cubegen
import copy,time
from pydmfet.tools.sym import h_lattice_sym_tab

bas = 'stuttgartdz'
ecp = 'stuttgartdz'
temp = 0.005


mol = gto.Mole()
mol.atom = open('Al12.xyz').read()
mol.basis = bas
mol.ecp = ecp
mol.charge = 0
mol.build(max_memory = 4000, verbose=4)

mf = rks_ao(mol,smear_sigma = temp)
mf.xc = 'pbe,pbe'
mf.max_cycle = 100
mf.scf(dm0=None)


natoms = mol.natm
impAtom = np.zeros([natoms], dtype=int)
for i in range(6):
    impAtom[i] = 1


embed = proj_ao.proj_embed(mf,impAtom, Ne_env = 12)
#embed.lo_method = 'boys'
embed.pop_method = 'iao'
embed.pm_exponent = 4
embed.make_frozen_orbs(norb = 12)
embed.embedding_potential()

#INFO: ******************** input file end ********************


System: uname_result(system='Linux', node='tigercpu.princeton.edu', release='3.10.0-957.27.2.el7.x86_64', version='#1 SMP Tue Jul 30 11:12:20 EDT 2019', machine='x86_64', processor='x86_64')  Threads 40
Python 3.7.0 (default, Jun 28 2018, 13:15:42) 
[GCC 7.2.0]
numpy 1.16.4  scipy 1.4.0.dev0+0f78e0f
Date: Tue Sep  3 13:45:10 2019
PySCF version 1.5
PySCF path  /home/xingz/.local/lib/python3.7/site-packages/pyscf

[CONFIG] conf_file None
[INPUT] verbose = 4
[INPUT] num. atoms = 12
[INPUT] num. electrons = 36
[INPUT] charge = 0
[INPUT] spin (= nelec alpha-beta = 2S) = 0
[INPUT] symmetry False subgroup None
[INPUT] Mole.unit = angstrom
[INPUT]  1 Al     8.092960000000   4.046480000000  -0.000000000000 AA   15.293477937060   7.646738968530  -0.000000000000 Bohr
[INPUT]  2 Al     8.092960000000   6.069720000000  -2.023240000000 AA   15.293477937060  11.470108452795  -3.823369484265 Bohr
[INPUT]  3 Al    10.116200000000   4.046480000000  -2.023240000000 AA   19.116847421325   7.646738968530  -3.823369484265 Bohr
[INPUT]  4 Al     6.069720000000   4.046480000000  -2.023240000000 AA   11.470108452795   7.646738968530  -3.823369484265 Bohr
[INPUT]  5 Al     8.092960000000   2.023240000000  -2.023240000000 AA   15.293477937060   3.823369484265  -3.823369484265 Bohr
[INPUT]  6 Al     8.092960000000   4.046480000000  -4.046480000000 AA   15.293477937060   7.646738968530  -7.646738968530 Bohr
[INPUT]  7 Al     6.069720000000   6.069720000000  -0.000000000000 AA   11.470108452795  11.470108452795  -0.000000000000 Bohr
[INPUT]  8 Al    10.116200000000   2.023240000000  -0.000000000000 AA   19.116847421325   3.823369484265  -0.000000000000 Bohr
[INPUT]  9 Al    10.116200000000   6.069720000000  -4.046480000000 AA   19.116847421325  11.470108452795  -7.646738968530 Bohr
[INPUT] 10 Al     6.069720000000   2.023240000000  -0.000000000000 AA   11.470108452795   3.823369484265  -0.000000000000 Bohr
[INPUT] 11 Al     6.069720000000   6.069720000000  -4.046480000000 AA   11.470108452795  11.470108452795  -7.646738968530 Bohr
[INPUT] 12 Al    10.116200000000   2.023240000000  -4.046480000000 AA   19.116847421325   3.823369484265  -7.646738968530 Bohr

nuclear repulsion = 84.8573926838199
number of shells = 48
number of NR pGTOs = 192
number of NR cGTOs = 96
basis = stuttgartdz
ecp = stuttgartdz
CPU time:         4.61
rks_ao.ne_frozen =  0


******** <class 'pydmfet.qcwrap.pyscf_rks_ao.rks_ao'> flags ********
method = rks_ao-RKS-RHF
initial guess = minao
damping factor = 0
level shift factor = 0
DIIS = <class 'pyscf.scf.diis.CDIIS'>
DIIS start cycle = 1
DIIS space = 8
SCF tol = 1e-09
SCF gradient tol = None
max. SCF cycles = 100
direct_scf = False
chkfile to save SCF result = /tigress/xingz/pydmfet/examples/research/Al12/tmp5b9q3a25
max_memory 4000 MB (current use 65 MB)
XC functionals = pbe,pbe
small_rho_cutoff = 1e-07
radial grids: 
    Treutler-Ahlrichs (JCP 102, 346 (M4)) radial grids
    
becke partition: Becke, JCP, 88, 2547 (1988)
pruning grids: <function nwchem_prune at 0x2adc6ff26400>
grids dens level: 3
symmetrized grids: False
atomic radii adjust function: <function treutler_atomic_radii_adjust at 0x2adc6ff26378>
Set gradient conv threshold to 3.16228e-05
tot grids = 220800
init E= -21.3447836582989
HOMO:  -0.09640875247665393 LUMO:  -0.08910626015727946
Fermi energy:      -0.0887572500
[2.     2.     2.     2.     2.     2.     2.     2.     2.     2.
 2.     2.     1.9995 1.9096 1.7557 1.7557 1.6441 1.6441 1.0349 0.2163
 0.02   0.02  ]
entropy correction =  -0.030126401120555504
cycle= 1 E= -24.0317931623435  delta_E= -2.69  |g|= 0.653  |ddm|= 6.67
HOMO:  -0.2311626812140668 LUMO:  -0.23116268121406458
Fermi energy:      -0.2358858179
[2.     2.     2.     2.     2.     2.     2.     2.     2.     2.
 2.     2.     2.     1.9989 1.9981 1.9981 1.9963 0.5599 0.5599 0.4393
 0.4393 0.0101]
entropy correction =  -0.02303933338298807
cycle= 2 E= -22.7589412389299  delta_E= 1.27  |g|= 1.61  |ddm|= 4.31
HOMO:  -0.18647942894363265 LUMO:  -0.17551521715008883
Fermi energy:      -0.1766937420
[2.     2.     2.     2.     2.     2.     2.     2.     2.     2.
 2.     2.     1.9995 1.9702 1.7766 1.7766 1.7524 1.7524 0.8827 0.0807
 0.0044 0.0044]
entropy correction =  -0.024152976140203695
cycle= 3 E= -24.15778191396  delta_E= -1.4  |g|= 0.177  |ddm|= 3.48
HOMO:  -0.16723309364643385 LUMO:  -0.16668219584287292
Fermi energy:      -0.1626445453
[2.     2.     2.     2.     2.     2.     2.     2.     2.     2.
 2.     2.     1.9999 1.922  1.8341 1.8341 1.4292 1.4292 1.3832 0.1196
 0.0244 0.0244]
entropy correction =  -0.029092388982086673
cycle= 4 E= -24.1758252803636  delta_E= -0.018  |g|= 0.0887  |ddm|= 0.83
HOMO:  -0.16913270192186244 LUMO:  -0.1647659994642616
Fermi energy:      -0.1627185946
[2.     2.     2.     2.     2.     2.     2.     2.     2.     2.
 2.     2.     1.9998 1.9364 1.7964 1.7964 1.5659 1.5659 1.2019 0.1144
 0.0115 0.0115]
entropy correction =  -0.028086976616489293
cycle= 5 E= -24.1831548018883  delta_E= -0.00733  |g|= 0.00917  |ddm|= 0.293
HOMO:  -0.17049749264548789 LUMO:  -0.16611814497689323
Fermi energy:      -0.1641279001
[2.     2.     2.     2.     2.     2.     2.     2.     2.     2.
 2.     2.     1.9999 1.9389 1.802  1.802  1.5628 1.5628 1.1964 0.1103
 0.0124 0.0124]
entropy correction =  -0.027959631237355113
cycle= 6 E= -24.18323430762  delta_E= -7.95e-05  |g|= 0.00113  |ddm|= 0.0422
HOMO:  -0.17058528293725203 LUMO:  -0.1663033188095802
Fermi energy:      -0.1642599608
[2.     2.     2.     2.     2.     2.     2.     2.     2.     2.
 2.     2.     1.9999 1.9387 1.8025 1.8025 1.5598 1.5598 1.2015 0.1105
 0.0124 0.0124]
entropy correction =  -0.027983238069822326
cycle= 7 E= -24.1832355424433  delta_E= -1.23e-06  |g|= 0.000895  |ddm|= 0.00747
HOMO:  -0.17054731833010087 LUMO:  -0.16621690815491552
Fermi energy:      -0.1641961314
[2.     2.     2.     2.     2.     2.     2.     2.     2.     2.
 2.     2.     1.9999 1.9385 1.8018 1.8018 1.5616 1.5616 1.1994 0.1109
 0.0124 0.0124]
entropy correction =  -0.027989016591825542
cycle= 8 E= -24.1832361917858  delta_E= -6.49e-07  |g|= 7.71e-05  |ddm|= 0.00356
HOMO:  -0.1705350851548876 LUMO:  -0.16621147282032223
Fermi energy:      -0.1641878969
[2.     2.     2.     2.     2.     2.     2.     2.     2.     2.
 2.     2.     1.9999 1.9385 1.8019 1.8019 1.5613 1.5613 1.1996 0.1108
 0.0124 0.0124]
entropy correction =  -0.027988384491849247
cycle= 9 E= -24.1832362012564  delta_E= -9.47e-09  |g|= 2.11e-05  |ddm|= 0.000544
HOMO:  -0.17053203701120564 LUMO:  -0.1662077727304521
Fermi energy:      -0.1641845192
[2.     2.     2.     2.     2.     2.     2.     2.     2.     2.
 2.     2.     1.9999 1.9385 1.8019 1.8019 1.5613 1.5613 1.1996 0.1108
 0.0124 0.0124]
entropy correction =  -0.027988108712781137
cycle= 10 E= -24.183236201552  delta_E= -2.96e-10  |g|= 3.03e-06  |ddm|= 6.6e-05
HOMO:  -0.1705331170869577 LUMO:  -0.16620885001250502
Fermi energy:      -0.1641855888
[2.     2.     2.     2.     2.     2.     2.     2.     2.     2.
 2.     2.     1.9999 1.9385 1.8019 1.8019 1.5613 1.5613 1.1996 0.1108
 0.0124 0.0124]
entropy correction =  -0.027988118840462928
Extra cycle  E= -24.1832362015498  delta_E= 2.2e-12  |g|= 3.71e-06  |ddm|= 1.75e-05
converged SCF energy = -24.1832362015498


******** <class 'pyscf.lo.pipek.PipekMezey'> flags ********
conv_tol = 1e-06
conv_tol_grad = None
max_cycle = 100
max_stepsize = 0.05
max_iters = 20
kf_interval = 5
kf_trust_region = 5
ah_start_tol = 1000000000.0
ah_start_cycle = 1
ah_level_shift = 0
ah_conv_tol = 1e-12
ah_lindep = 1e-14
ah_max_cycle = 40
ah_trust_region = 3
init_guess = atomic
pop_method = iao
Set conv_tol_grad to 0.000316228

WARN: ECP/PP is used. MINAO is not a good reference AO basis in IAO.


WARN: ECP/PP is used. MINAO is not a good reference AO basis in IAO.


WARN: ECP/PP is used. MINAO is not a good reference AO basis in IAO.

macro= 1  f(x)= 0.057002851914495  delta_f= 0.0570029  |g|= 0.0203203  1 KF 5 Hx

WARN: ECP/PP is used. MINAO is not a good reference AO basis in IAO.


WARN: ECP/PP is used. MINAO is not a good reference AO basis in IAO.


WARN: ECP/PP is used. MINAO is not a good reference AO basis in IAO.


WARN: ECP/PP is used. MINAO is not a good reference AO basis in IAO.


WARN: ECP/PP is used. MINAO is not a good reference AO basis in IAO.

macro= 2  f(x)= 0.20387372793592  delta_f= 0.146871  |g|= 0.142241  4 KF 23 Hx

WARN: ECP/PP is used. MINAO is not a good reference AO basis in IAO.


WARN: ECP/PP is used. MINAO is not a good reference AO basis in IAO.


WARN: ECP/PP is used. MINAO is not a good reference AO basis in IAO.


WARN: ECP/PP is used. MINAO is not a good reference AO basis in IAO.


WARN: ECP/PP is used. MINAO is not a good reference AO basis in IAO.

macro= 3  f(x)= 0.44469324157753  delta_f= 0.24082  |g|= 0.179694  4 KF 23 Hx

WARN: ECP/PP is used. MINAO is not a good reference AO basis in IAO.


WARN: ECP/PP is used. MINAO is not a good reference AO basis in IAO.


WARN: ECP/PP is used. MINAO is not a good reference AO basis in IAO.


WARN: ECP/PP is used. MINAO is not a good reference AO basis in IAO.


WARN: ECP/PP is used. MINAO is not a good reference AO basis in IAO.

macro= 4  f(x)= 0.59479931362865  delta_f= 0.150106  |g|= 0.292961  4 KF 22 Hx

WARN: ECP/PP is used. MINAO is not a good reference AO basis in IAO.


WARN: ECP/PP is used. MINAO is not a good reference AO basis in IAO.


WARN: ECP/PP is used. MINAO is not a good reference AO basis in IAO.


WARN: ECP/PP is used. MINAO is not a good reference AO basis in IAO.


WARN: ECP/PP is used. MINAO is not a good reference AO basis in IAO.

macro= 5  f(x)= 0.75291145002358  delta_f= 0.158112  |g|= 0.18015  4 KF 23 Hx

WARN: ECP/PP is used. MINAO is not a good reference AO basis in IAO.


WARN: ECP/PP is used. MINAO is not a good reference AO basis in IAO.


WARN: ECP/PP is used. MINAO is not a good reference AO basis in IAO.


WARN: ECP/PP is used. MINAO is not a good reference AO basis in IAO.


WARN: ECP/PP is used. MINAO is not a good reference AO basis in IAO.

macro= 6  f(x)= 0.82272667933577  delta_f= 0.0698152  |g|= 0.312668  4 KF 22 Hx

WARN: ECP/PP is used. MINAO is not a good reference AO basis in IAO.


WARN: ECP/PP is used. MINAO is not a good reference AO basis in IAO.


WARN: ECP/PP is used. MINAO is not a good reference AO basis in IAO.


WARN: ECP/PP is used. MINAO is not a good reference AO basis in IAO.


WARN: ECP/PP is used. MINAO is not a good reference AO basis in IAO.

macro= 7  f(x)= 0.89820295603409  delta_f= 0.0754763  |g|= 0.369493  4 KF 21 Hx

WARN: ECP/PP is used. MINAO is not a good reference AO basis in IAO.


WARN: ECP/PP is used. MINAO is not a good reference AO basis in IAO.


WARN: ECP/PP is used. MINAO is not a good reference AO basis in IAO.


WARN: ECP/PP is used. MINAO is not a good reference AO basis in IAO.


WARN: ECP/PP is used. MINAO is not a good reference AO basis in IAO.

macro= 8  f(x)= 1.1414081827727  delta_f= 0.243205  |g|= 0.381777  4 KF 21 Hx

WARN: ECP/PP is used. MINAO is not a good reference AO basis in IAO.


WARN: ECP/PP is used. MINAO is not a good reference AO basis in IAO.


WARN: ECP/PP is used. MINAO is not a good reference AO basis in IAO.


WARN: ECP/PP is used. MINAO is not a good reference AO basis in IAO.


WARN: ECP/PP is used. MINAO is not a good reference AO basis in IAO.

macro= 9  f(x)= 1.2975597928816  delta_f= 0.156152  |g|= 0.29048  4 KF 22 Hx

WARN: ECP/PP is used. MINAO is not a good reference AO basis in IAO.


WARN: ECP/PP is used. MINAO is not a good reference AO basis in IAO.


WARN: ECP/PP is used. MINAO is not a good reference AO basis in IAO.


WARN: ECP/PP is used. MINAO is not a good reference AO basis in IAO.


WARN: ECP/PP is used. MINAO is not a good reference AO basis in IAO.

macro= 10  f(x)= 1.4608743224973  delta_f= 0.163315  |g|= 0.181775  4 KF 23 Hx

WARN: ECP/PP is used. MINAO is not a good reference AO basis in IAO.


WARN: ECP/PP is used. MINAO is not a good reference AO basis in IAO.


WARN: ECP/PP is used. MINAO is not a good reference AO basis in IAO.


WARN: ECP/PP is used. MINAO is not a good reference AO basis in IAO.


WARN: ECP/PP is used. MINAO is not a good reference AO basis in IAO.

macro= 11  f(x)= 1.5854351961769  delta_f= 0.124561  |g|= 0.151555  4 KF 23 Hx

WARN: ECP/PP is used. MINAO is not a good reference AO basis in IAO.


WARN: ECP/PP is used. MINAO is not a good reference AO basis in IAO.


WARN: ECP/PP is used. MINAO is not a good reference AO basis in IAO.


WARN: ECP/PP is used. MINAO is not a good reference AO basis in IAO.

macro= 12  f(x)= 1.6080800821748  delta_f= 0.0226449  |g|= 0.0293987  3 KF 11 Hx

WARN: ECP/PP is used. MINAO is not a good reference AO basis in IAO.


WARN: ECP/PP is used. MINAO is not a good reference AO basis in IAO.


WARN: ECP/PP is used. MINAO is not a good reference AO basis in IAO.


WARN: ECP/PP is used. MINAO is not a good reference AO basis in IAO.

macro= 13  f(x)= 1.6083391363756  delta_f= 0.000259054  |g|= 9.61243e-05  3 KF 10 Hx

WARN: ECP/PP is used. MINAO is not a good reference AO basis in IAO.


WARN: ECP/PP is used. MINAO is not a good reference AO basis in IAO.

macro= 14  f(x)= 1.6083391363757  delta_f= 4.88498e-15  |g|= 3.43279e-05  1 KF 1 Hx
macro X = 14  f(x)= 1.6083391363757  |g|= 3.43279e-05  28 intor 48 KF 250 Hx
  sorted Mulliken popupaltion: 1.0 for fully occupied
8.988377e-01 8.792858e-01 8.786848e-01 8.785532e-01 8.762133e-01 
8.188161e-01 1.308346e-01 1.277085e-01 1.158390e-01 1.122914e-01 
1.071334e-01 1.059271e-01 
 6 enviroment orbitals kept frozen.
rks_ao.ne_frozen =  12
Set gradient conv threshold to 3.16228e-05
tot grids = 220800
init E= -24.6280430908201
HOMO:  -0.1705327056128202 LUMO:  -0.1662087255735518
Fermi energy:      -0.1641853186
[2.     2.     2.     2.     2.     2.     1.9999 1.9385 1.8019 1.8019
 1.5613 1.5613 1.1996 0.1108 0.0124 0.0124]
entropy correction =  -0.02798791956309749
cycle= 1 E= -24.1832397445282  delta_E= 0.445  |g|= 2e-05  |ddm|= 0.000176
HOMO:  -0.17053634704355247 LUMO:  -0.1662136332620022
Fermi energy:      -0.1641895576
[2.     2.     2.     2.     2.     2.     1.9999 1.9385 1.8019 1.8019
 1.5613 1.5613 1.1997 0.1108 0.0124 0.0124]
entropy correction =  -0.027987871676136346
cycle= 2 E= -24.1832397439041  delta_E= 6.24e-10  |g|= 4.43e-05  |ddm|= 0.000113
HOMO:  -0.17053526244724565 LUMO:  -0.16621132677100361
Fermi energy:      -0.1641878916
[2.     2.     2.     2.     2.     2.     1.9999 1.9385 1.8019 1.8019
 1.5613 1.5613 1.1996 0.1108 0.0124 0.0124]
entropy correction =  -0.02798775507668116
cycle= 3 E= -24.1832397446274  delta_E= -7.23e-10  |g|= 4.62e-06  |ddm|= 8.53e-05
HOMO:  -0.1705348504838583 LUMO:  -0.16621140020675013
Fermi energy:      -0.1641877235
[2.     2.     2.     2.     2.     2.     1.9999 1.9385 1.8019 1.8019
 1.5613 1.5613 1.1996 0.1108 0.0124 0.0124]
entropy correction =  -0.02798789157304598
Extra cycle  E= -24.1832397444689  delta_E= 1.58e-10  |g|= 2.22e-05  |ddm|= 4.59e-05
<class 'pydmfet.qcwrap.pyscf_rks_ao.rks_ao'> does not have attributes  vext_1e ne_frozen dm_guess add_coredm_ext_energy coredm
entropy correction =  -0.02798789157304598
level shift energy: 3.8178652428388915e-07
|P_frag + P_bath - P_ref| / N =  1.7150693434071969e-06
max(P_frag + P_bath - P_ref) =  9.620537554044795e-06
