#INFO: **** input file is /tigress/xingz/pydmfet/examples/research/O2-graphene/O2-C24/proj/O2-C24.py ****
from pydmfet import proj_ao, tools
from pydmfet.qcwrap.pyscf_rks_ao import rks_ao
from pyscf import gto,scf
import numpy as np
from pyscf.tools import molden

t0 = tools.time0()

bas ='6-31G*'
temp = 0.005


mol = gto.Mole()
mol.atom = open('O2-C24.xyz').read()
mol.basis = bas
mol.charge = 0
mol.build(max_memory = 24000, verbose=4)

dm_guess=None
_, _, mo_coeff, mo_occ, _, _ = molden.load("MO_pbe.molden")
dm_guess = np.dot(mo_coeff*mo_occ, mo_coeff.T)


#mf = scf.UKS(mol)
mf = rks_ao(mol,smear_sigma = temp)
mf.xc = "pbe,pbe"
mf.max_cycle = 50
mf.scf(dm0=dm_guess)

'''
with open( 'MO.molden', 'w' ) as thefile:
    molden.header(mf.mol, thefile)
    molden.orbital_coeff(mf.mol, thefile, mf.mo_coeff,occ = mf.mo_occ, ene = mf.mo_energy)
'''

natoms = mol.natm
impAtom = np.zeros([natoms], dtype=int)
for i in range(8):
    impAtom[i] = 1


embed = proj_ao.proj_embed(mf,impAtom, Ne_env = 110)
embed.pop_method = 'meta_lowdin'
embed.pm_exponent = 2
embed.make_frozen_orbs(norb = 83)
embed.embedding_potential()

#INFO: ******************** input file end ********************


System: uname_result(system='Linux', node='tigercpu.princeton.edu', release='3.10.0-957.27.2.el7.x86_64', version='#1 SMP Tue Jul 30 11:12:20 EDT 2019', machine='x86_64', processor='x86_64')  Threads 40
Python 3.7.0 (default, Jun 28 2018, 13:15:42) 
[GCC 7.2.0]
numpy 1.16.4  scipy 1.4.0.dev0+0f78e0f
Date: Wed Sep 11 20:20:55 2019
PySCF version 1.5
PySCF path  /home/xingz/.local/lib/python3.7/site-packages/pyscf

[CONFIG] conf_file None
[INPUT] verbose = 4
[INPUT] num. atoms = 38
[INPUT] num. electrons = 172
[INPUT] charge = 0
[INPUT] spin (= nelec alpha-beta = 2S) = 0
[INPUT] symmetry False subgroup None
[INPUT] Mole.unit = angstrom
[INPUT]  1 O      0.610735000000  -1.057825000000   1.300000000000 AA    1.154121884686  -1.998999537718   2.456643961935 Bohr
[INPUT]  2 O      0.610740000000   1.057830000000   1.300000000000 AA    1.154131333317   1.999008986349   2.456643961935 Bohr
[INPUT]  3 C      0.000000000000  -1.410430000000   0.000000000000 AA    0.000000000000  -2.665326417870   0.000000000000 Bohr
[INPUT]  4 C     -1.221470000000  -0.705220000000   0.000000000000 AA   -2.308243769372  -1.332672657566   0.000000000000 Bohr
[INPUT]  5 C     -1.221470000000   0.705220000000   0.000000000000 AA   -2.308243769372   1.332672657566   0.000000000000 Bohr
[INPUT]  6 C      0.000000000000   1.410430000000   0.000000000000 AA    0.000000000000   2.665326417870   0.000000000000 Bohr
[INPUT]  7 C      1.221470000000   0.705220000000   0.000000000000 AA    2.308243769372   1.332672657566   0.000000000000 Bohr
[INPUT]  8 C      1.221470000000  -0.705220000000   0.000000000000 AA    2.308243769372  -1.332672657566   0.000000000000 Bohr
[INPUT]  9 C      0.000000000000  -2.820870000000   0.000000000000 AA    0.000000000000  -5.330671733002   0.000000000000 Bohr
[INPUT] 10 C     -2.442940000000  -1.410430000000   0.000000000000 AA   -4.616487538745  -2.665326417870   0.000000000000 Bohr
[INPUT] 11 C     -2.442940000000   1.410430000000   0.000000000000 AA   -4.616487538745   2.665326417870   0.000000000000 Bohr
[INPUT] 12 C      0.000000000000   2.820870000000   0.000000000000 AA    0.000000000000   5.330671733002   0.000000000000 Bohr
[INPUT] 13 C      2.442940000000   1.410430000000   0.000000000000 AA    4.616487538745   2.665326417870   0.000000000000 Bohr
[INPUT] 14 C      2.442940000000  -1.410430000000   0.000000000000 AA    4.616487538745  -2.665326417870   0.000000000000 Bohr
[INPUT] 15 C      3.664760000000   0.706140000000   0.000000000000 AA    6.925392712261   1.334411205600   0.000000000000 Bohr
[INPUT] 16 C      3.664760000000  -0.706140000000   0.000000000000 AA    6.925392712261  -1.334411205600   0.000000000000 Bohr
[INPUT] 17 C      2.443910000000  -2.820710000000   0.000000000000 AA    4.618320573086  -5.330369376822   0.000000000000 Bohr
[INPUT] 18 C      2.443910000000   2.820710000000   0.000000000000 AA    4.618320573086   5.330369376822   0.000000000000 Bohr
[INPUT] 19 C      1.220850000000   3.526840000000   0.000000000000 AA    2.307072139175   6.664761685161   0.000000000000 Bohr
[INPUT] 20 C     -1.220850000000   3.526840000000   0.000000000000 AA   -2.307072139175   6.664761685161   0.000000000000 Bohr
[INPUT] 21 C      1.220850000000  -3.526840000000   0.000000000000 AA    2.307072139175  -6.664761685161   0.000000000000 Bohr
[INPUT] 22 C     -2.443910000000   2.820710000000   0.000000000000 AA   -4.618320573086   5.330369376822   0.000000000000 Bohr
[INPUT] 23 C     -1.220850000000  -3.526840000000   0.000000000000 AA   -2.307072139175  -6.664761685161   0.000000000000 Bohr
[INPUT] 24 C     -3.664760000000   0.706140000000   0.000000000000 AA   -6.925392712261   1.334411205600   0.000000000000 Bohr
[INPUT] 25 C     -2.443910000000  -2.820710000000   0.000000000000 AA   -4.618320573086  -5.330369376822   0.000000000000 Bohr
[INPUT] 26 C     -3.664760000000  -0.706140000000   0.000000000000 AA   -6.925392712261  -1.334411205600   0.000000000000 Bohr
[INPUT] 27 H      1.220500000000   4.558840000000   0.000000000000 AA    2.306410735032   8.614959045712   0.000000000000 Bohr
[INPUT] 28 H     -1.220500000000   4.558840000000   0.000000000000 AA   -2.306410735032   8.614959045712   0.000000000000 Bohr
[INPUT] 29 H      1.220500000000  -4.558840000000   0.000000000000 AA    2.306410735032  -8.614959045712   0.000000000000 Bohr
[INPUT] 30 H     -3.337820000000   3.336400000000   0.000000000000 AA   -6.307565653096   6.304882241999   0.000000000000 Bohr
[INPUT] 31 H     -1.220500000000  -4.558840000000   0.000000000000 AA   -2.306410735032  -8.614959045712   0.000000000000 Bohr
[INPUT] 32 H     -4.558320000000   1.222450000000   0.000000000000 AA   -8.613976388127   2.310095700975   0.000000000000 Bohr
[INPUT] 33 H     -3.337820000000  -3.336400000000   0.000000000000 AA   -6.307565653096  -6.304882241999   0.000000000000 Bohr
[INPUT] 34 H     -4.558320000000  -1.222450000000   0.000000000000 AA   -8.613976388127  -2.310095700975   0.000000000000 Bohr
[INPUT] 35 H      4.558320000000   1.222450000000   0.000000000000 AA    8.613976388127   2.310095700975   0.000000000000 Bohr
[INPUT] 36 H      4.558320000000  -1.222450000000   0.000000000000 AA    8.613976388127  -2.310095700975   0.000000000000 Bohr
[INPUT] 37 H      3.337820000000  -3.336400000000   0.000000000000 AA    6.307565653096  -6.304882241999   0.000000000000 Bohr
[INPUT] 38 H      3.337820000000   3.336400000000   0.000000000000 AA    6.307565653096   6.304882241999   0.000000000000 Bohr

nuclear repulsion = 2285.40370257572
number of shells = 180
number of NR pGTOs = 750
number of NR cGTOs = 388
basis = 6-31G*
ecp = {}
CPU time:         4.60
rks_ao.ne_frozen =  0


******** <class 'pydmfet.qcwrap.pyscf_rks_ao.rks_ao'> flags ********
method = rks_ao-RKS-RHF
initial guess = minao
damping factor = 0
level shift factor = 0
DIIS = <class 'pyscf.scf.diis.CDIIS'>
DIIS start cycle = 1
DIIS space = 8
SCF tol = 1e-09
SCF gradient tol = None
max. SCF cycles = 50
direct_scf = False
chkfile to save SCF result = /tigress/xingz/pydmfet/examples/research/O2-graphene/O2-C24/proj/tmpo8rijji2
max_memory 24000 MB (current use 107 MB)
XC functionals = pbe,pbe
small_rho_cutoff = 1e-07
radial grids: 
    Treutler-Ahlrichs (JCP 102, 346 (M4)) radial grids
    
becke partition: Becke, JCP, 88, 2547 (1988)
pruning grids: <function nwchem_prune at 0x2ac57a291950>
grids dens level: 3
symmetrized grids: False
atomic radii adjust function: <function treutler_atomic_radii_adjust at 0x2ac57a2918c8>
Set gradient conv threshold to 3.16228e-05
tot grids = 482460
init E= -1070.69277053035
HOMO:  -0.16012948210104602 LUMO:  -0.10244503369986774
Fermi energy:      -0.1307790506
[2.0000e+00 2.0000e+00 2.0000e+00 2.0000e+00 2.0000e+00 2.0000e+00
 2.0000e+00 2.0000e+00 2.0000e+00 2.0000e+00 2.0000e+00 2.0000e+00
 2.0000e+00 2.0000e+00 2.0000e+00 2.0000e+00 2.0000e+00 2.0000e+00
 2.0000e+00 2.0000e+00 2.0000e+00 2.0000e+00 2.0000e+00 2.0000e+00
 2.0000e+00 2.0000e+00 2.0000e+00 2.0000e+00 2.0000e+00 2.0000e+00
 2.0000e+00 2.0000e+00 2.0000e+00 2.0000e+00 2.0000e+00 2.0000e+00
 2.0000e+00 2.0000e+00 2.0000e+00 2.0000e+00 2.0000e+00 2.0000e+00
 2.0000e+00 2.0000e+00 2.0000e+00 2.0000e+00 2.0000e+00 2.0000e+00
 2.0000e+00 2.0000e+00 2.0000e+00 2.0000e+00 2.0000e+00 2.0000e+00
 2.0000e+00 2.0000e+00 2.0000e+00 2.0000e+00 2.0000e+00 2.0000e+00
 2.0000e+00 2.0000e+00 2.0000e+00 2.0000e+00 2.0000e+00 2.0000e+00
 2.0000e+00 2.0000e+00 2.0000e+00 2.0000e+00 2.0000e+00 2.0000e+00
 2.0000e+00 2.0000e+00 2.0000e+00 2.0000e+00 2.0000e+00 2.0000e+00
 2.0000e+00 2.0000e+00 2.0000e+00 2.0000e+00 2.0000e+00 1.9993e+00
 1.9985e+00 1.9944e+00 6.8940e-03 9.2849e-04]
entropy correction =  -0.0005562131511939553
cycle= 1 E= -1070.69332652682  delta_E= -0.000556  |g|= 0.00015  |ddm|= 0.000284
HOMO:  -0.1601268279574348 LUMO:  -0.10244336231469155
Fermi energy:      -0.1307756060
[2.0000e+00 2.0000e+00 2.0000e+00 2.0000e+00 2.0000e+00 2.0000e+00
 2.0000e+00 2.0000e+00 2.0000e+00 2.0000e+00 2.0000e+00 2.0000e+00
 2.0000e+00 2.0000e+00 2.0000e+00 2.0000e+00 2.0000e+00 2.0000e+00
 2.0000e+00 2.0000e+00 2.0000e+00 2.0000e+00 2.0000e+00 2.0000e+00
 2.0000e+00 2.0000e+00 2.0000e+00 2.0000e+00 2.0000e+00 2.0000e+00
 2.0000e+00 2.0000e+00 2.0000e+00 2.0000e+00 2.0000e+00 2.0000e+00
 2.0000e+00 2.0000e+00 2.0000e+00 2.0000e+00 2.0000e+00 2.0000e+00
 2.0000e+00 2.0000e+00 2.0000e+00 2.0000e+00 2.0000e+00 2.0000e+00
 2.0000e+00 2.0000e+00 2.0000e+00 2.0000e+00 2.0000e+00 2.0000e+00
 2.0000e+00 2.0000e+00 2.0000e+00 2.0000e+00 2.0000e+00 2.0000e+00
 2.0000e+00 2.0000e+00 2.0000e+00 2.0000e+00 2.0000e+00 2.0000e+00
 2.0000e+00 2.0000e+00 2.0000e+00 2.0000e+00 2.0000e+00 2.0000e+00
 2.0000e+00 2.0000e+00 2.0000e+00 2.0000e+00 2.0000e+00 2.0000e+00
 2.0000e+00 2.0000e+00 2.0000e+00 2.0000e+00 2.0000e+00 1.9993e+00
 1.9985e+00 1.9944e+00 6.8964e-03 9.2739e-04]
entropy correction =  -0.0005562991690660645
cycle= 2 E= -1070.69332638616  delta_E= 1.41e-07  |g|= 0.000618  |ddm|= 0.00117
HOMO:  -0.1601284765458589 LUMO:  -0.10244423514507131
Fermi energy:      -0.1307779103
[2.0000e+00 2.0000e+00 2.0000e+00 2.0000e+00 2.0000e+00 2.0000e+00
 2.0000e+00 2.0000e+00 2.0000e+00 2.0000e+00 2.0000e+00 2.0000e+00
 2.0000e+00 2.0000e+00 2.0000e+00 2.0000e+00 2.0000e+00 2.0000e+00
 2.0000e+00 2.0000e+00 2.0000e+00 2.0000e+00 2.0000e+00 2.0000e+00
 2.0000e+00 2.0000e+00 2.0000e+00 2.0000e+00 2.0000e+00 2.0000e+00
 2.0000e+00 2.0000e+00 2.0000e+00 2.0000e+00 2.0000e+00 2.0000e+00
 2.0000e+00 2.0000e+00 2.0000e+00 2.0000e+00 2.0000e+00 2.0000e+00
 2.0000e+00 2.0000e+00 2.0000e+00 2.0000e+00 2.0000e+00 2.0000e+00
 2.0000e+00 2.0000e+00 2.0000e+00 2.0000e+00 2.0000e+00 2.0000e+00
 2.0000e+00 2.0000e+00 2.0000e+00 2.0000e+00 2.0000e+00 2.0000e+00
 2.0000e+00 2.0000e+00 2.0000e+00 2.0000e+00 2.0000e+00 2.0000e+00
 2.0000e+00 2.0000e+00 2.0000e+00 2.0000e+00 2.0000e+00 2.0000e+00
 2.0000e+00 2.0000e+00 2.0000e+00 2.0000e+00 2.0000e+00 2.0000e+00
 2.0000e+00 2.0000e+00 2.0000e+00 2.0000e+00 2.0000e+00 1.9993e+00
 1.9985e+00 1.9944e+00 6.8944e-03 9.2839e-04]
entropy correction =  -0.0005562372212711389
cycle= 3 E= -1070.69332653506  delta_E= -1.49e-07  |g|= 3.88e-05  |ddm|= 0.000954
HOMO:  -0.1601288850241001 LUMO:  -0.1024446424773673
Fermi energy:      -0.1307783188
[2.0000e+00 2.0000e+00 2.0000e+00 2.0000e+00 2.0000e+00 2.0000e+00
 2.0000e+00 2.0000e+00 2.0000e+00 2.0000e+00 2.0000e+00 2.0000e+00
 2.0000e+00 2.0000e+00 2.0000e+00 2.0000e+00 2.0000e+00 2.0000e+00
 2.0000e+00 2.0000e+00 2.0000e+00 2.0000e+00 2.0000e+00 2.0000e+00
 2.0000e+00 2.0000e+00 2.0000e+00 2.0000e+00 2.0000e+00 2.0000e+00
 2.0000e+00 2.0000e+00 2.0000e+00 2.0000e+00 2.0000e+00 2.0000e+00
 2.0000e+00 2.0000e+00 2.0000e+00 2.0000e+00 2.0000e+00 2.0000e+00
 2.0000e+00 2.0000e+00 2.0000e+00 2.0000e+00 2.0000e+00 2.0000e+00
 2.0000e+00 2.0000e+00 2.0000e+00 2.0000e+00 2.0000e+00 2.0000e+00
 2.0000e+00 2.0000e+00 2.0000e+00 2.0000e+00 2.0000e+00 2.0000e+00
 2.0000e+00 2.0000e+00 2.0000e+00 2.0000e+00 2.0000e+00 2.0000e+00
 2.0000e+00 2.0000e+00 2.0000e+00 2.0000e+00 2.0000e+00 2.0000e+00
 2.0000e+00 2.0000e+00 2.0000e+00 2.0000e+00 2.0000e+00 2.0000e+00
 2.0000e+00 2.0000e+00 2.0000e+00 2.0000e+00 2.0000e+00 1.9993e+00
 1.9985e+00 1.9944e+00 6.8944e-03 9.2830e-04]
entropy correction =  -0.0005562308050261369
cycle= 4 E= -1070.69332653547  delta_E= -4.11e-10  |g|= 6.16e-06  |ddm|= 5.08e-05
HOMO:  -0.16012876673838577 LUMO:  -0.10244448976120665
Fermi energy:      -0.1307781382
[2.0000e+00 2.0000e+00 2.0000e+00 2.0000e+00 2.0000e+00 2.0000e+00
 2.0000e+00 2.0000e+00 2.0000e+00 2.0000e+00 2.0000e+00 2.0000e+00
 2.0000e+00 2.0000e+00 2.0000e+00 2.0000e+00 2.0000e+00 2.0000e+00
 2.0000e+00 2.0000e+00 2.0000e+00 2.0000e+00 2.0000e+00 2.0000e+00
 2.0000e+00 2.0000e+00 2.0000e+00 2.0000e+00 2.0000e+00 2.0000e+00
 2.0000e+00 2.0000e+00 2.0000e+00 2.0000e+00 2.0000e+00 2.0000e+00
 2.0000e+00 2.0000e+00 2.0000e+00 2.0000e+00 2.0000e+00 2.0000e+00
 2.0000e+00 2.0000e+00 2.0000e+00 2.0000e+00 2.0000e+00 2.0000e+00
 2.0000e+00 2.0000e+00 2.0000e+00 2.0000e+00 2.0000e+00 2.0000e+00
 2.0000e+00 2.0000e+00 2.0000e+00 2.0000e+00 2.0000e+00 2.0000e+00
 2.0000e+00 2.0000e+00 2.0000e+00 2.0000e+00 2.0000e+00 2.0000e+00
 2.0000e+00 2.0000e+00 2.0000e+00 2.0000e+00 2.0000e+00 2.0000e+00
 2.0000e+00 2.0000e+00 2.0000e+00 2.0000e+00 2.0000e+00 2.0000e+00
 2.0000e+00 2.0000e+00 2.0000e+00 2.0000e+00 2.0000e+00 1.9993e+00
 1.9985e+00 1.9944e+00 6.8945e-03 9.2833e-04]
entropy correction =  -0.0005562359508293567
Extra cycle  E= -1070.6933265352  delta_E= 2.7e-10  |g|= 2.82e-05  |ddm|= 4.78e-05
converged SCF energy = -1070.6933265352


******** <class 'pyscf.lo.pipek.PipekMezey'> flags ********
conv_tol = 1e-06
conv_tol_grad = None
max_cycle = 100
max_stepsize = 0.05
max_iters = 20
kf_interval = 5
kf_trust_region = 5
ah_start_tol = 1000000000.0
ah_start_cycle = 1
ah_level_shift = 0
ah_conv_tol = 1e-12
ah_lindep = 1e-14
ah_max_cycle = 40
ah_trust_region = 3
init_guess = atomic
pop_method = meta_lowdin
Set conv_tol_grad to 0.000316228
macro= 1  f(x)= 22.901806193481  delta_f= 22.9018  |g|= 2.42901  4 KF 20 Hx
macro= 2  f(x)= 28.56497538843  delta_f= 5.66317  |g|= 1.92944  4 KF 20 Hx
macro= 3  f(x)= 30.791739303627  delta_f= 2.22676  |g|= 0.891672  4 KF 20 Hx
macro= 4  f(x)= 33.98419570697  delta_f= 3.19246  |g|= 1.17886  4 KF 20 Hx
macro= 5  f(x)= 35.984650813676  delta_f= 2.00046  |g|= 0.998433  4 KF 20 Hx
macro= 6  f(x)= 37.713199314707  delta_f= 1.72855  |g|= 1.09062  4 KF 20 Hx
macro= 7  f(x)= 43.31829554052  delta_f= 5.6051  |g|= 1.43449  4 KF 20 Hx
macro= 8  f(x)= 50.14578342799  delta_f= 6.82749  |g|= 1.15345  4 KF 20 Hx
macro= 9  f(x)= 51.75473861879  delta_f= 1.60896  |g|= 0.834533  4 KF 20 Hx
macro= 10  f(x)= 52.598698160768  delta_f= 0.84396  |g|= 0.563045  4 KF 21 Hx
macro= 11  f(x)= 52.98270624058  delta_f= 0.384008  |g|= 0.209506  4 KF 23 Hx
macro= 12  f(x)= 53.027489919378  delta_f= 0.0447837  |g|= 0.0209535  3 KF 7 Hx
macro= 13  f(x)= 53.027715290124  delta_f= 0.000225371  |g|= 0.000222824  3 KF 9 Hx
macro= 14  f(x)= 53.027715290991  delta_f= 8.66052e-10  |g|= 6.33921e-05  1 KF 1 Hx
macro X = 14  f(x)= 53.027715290991  |g|= 6.33921e-05  28 intor 51 KF 241 Hx
  sorted Mulliken popupaltion: 1.0 for fully occupied
1.006982e+00 1.006955e+00 1.006934e+00 1.006933e+00 1.006137e+00 
1.006135e+00 1.000244e+00 1.000244e+00 1.000237e+00 1.000237e+00 
1.000236e+00 1.000236e+00 1.000231e+00 1.000231e+00 1.000229e+00 
1.000229e+00 1.000219e+00 1.000219e+00 1.000159e+00 1.000159e+00 
1.000029e+00 1.000029e+00 9.998397e-01 9.998386e-01 9.995934e-01 
9.995928e-01 9.995922e-01 9.995912e-01 9.995196e-01 9.995196e-01 
9.994607e-01 9.994581e-01 9.994135e-01 9.994037e-01 9.990030e-01 
9.989969e-01 9.886451e-01 9.886443e-01 9.869387e-01 9.869333e-01 
9.850654e-01 9.850626e-01 9.850220e-01 9.850042e-01 9.829698e-01 
9.829662e-01 9.817522e-01 9.802087e-01 9.801997e-01 9.775705e-01 
9.761604e-01 9.746357e-01 9.680154e-01 9.505580e-01 7.741462e-01 
5.398551e-01 5.398501e-01 5.012952e-01 5.010050e-01 4.927876e-01 
4.926750e-01 3.807014e-01 4.403003e-02 3.424854e-02 3.024959e-02 
2.886474e-02 2.844073e-02 7.667809e-03 7.523142e-03 4.447558e-03 
3.230486e-03 2.687833e-03 2.687771e-03 2.401095e-03 2.401005e-03 
1.560594e-03 1.560578e-03 -3.586988e-05 -3.587786e-05 -1.451360e-02 
-1.453917e-02 -1.625684e-02 -1.669887e-02 
55 enviroment orbitals kept frozen.
rks_ao.ne_frozen =  110
Set gradient conv threshold to 3.16228e-05
tot grids = 482460
init E= -1070.72283514416
HOMO:  -0.16012910153150753 LUMO:  -0.10244495458425677
Fermi energy:      -0.1307789482
[2.0000e+00 2.0000e+00 2.0000e+00 2.0000e+00 2.0000e+00 2.0000e+00
 2.0000e+00 2.0000e+00 2.0000e+00 2.0000e+00 2.0000e+00 2.0000e+00
 2.0000e+00 2.0000e+00 2.0000e+00 2.0000e+00 2.0000e+00 2.0000e+00
 2.0000e+00 2.0000e+00 2.0000e+00 2.0000e+00 2.0000e+00 2.0000e+00
 2.0000e+00 2.0000e+00 2.0000e+00 2.0000e+00 1.9993e+00 1.9985e+00
 1.9944e+00 6.8940e-03 9.2819e-04]
entropy correction =  -0.0005561618077915655
cycle= 1 E= -1070.69332916483  delta_E= 0.0295  |g|= 0.000116  |ddm|= 0.000222
HOMO:  -0.16012784677022898 LUMO:  -0.10244320638121514
Fermi energy:      -0.1307767935
[2.0000e+00 2.0000e+00 2.0000e+00 2.0000e+00 2.0000e+00 2.0000e+00
 2.0000e+00 2.0000e+00 2.0000e+00 2.0000e+00 2.0000e+00 2.0000e+00
 2.0000e+00 2.0000e+00 2.0000e+00 2.0000e+00 2.0000e+00 2.0000e+00
 2.0000e+00 2.0000e+00 2.0000e+00 2.0000e+00 2.0000e+00 2.0000e+00
 2.0000e+00 2.0000e+00 2.0000e+00 2.0000e+00 1.9993e+00 1.9985e+00
 1.9944e+00 6.8946e-03 9.2853e-04]
entropy correction =  -0.0005562306939271761
cycle= 2 E= -1070.69332907418  delta_E= 9.07e-08  |g|= 0.000504  |ddm|= 0.000973
HOMO:  -0.16012868203535985 LUMO:  -0.10244436598273109
Fermi energy:      -0.1307782187
[2.0000e+00 2.0000e+00 2.0000e+00 2.0000e+00 2.0000e+00 2.0000e+00
 2.0000e+00 2.0000e+00 2.0000e+00 2.0000e+00 2.0000e+00 2.0000e+00
 2.0000e+00 2.0000e+00 2.0000e+00 2.0000e+00 2.0000e+00 2.0000e+00
 2.0000e+00 2.0000e+00 2.0000e+00 2.0000e+00 2.0000e+00 2.0000e+00
 2.0000e+00 2.0000e+00 2.0000e+00 2.0000e+00 1.9993e+00 1.9985e+00
 1.9944e+00 6.8942e-03 9.2830e-04]
entropy correction =  -0.0005561850871485598
cycle= 3 E= -1070.69332916975  delta_E= -9.56e-08  |g|= 2e-05  |ddm|= 0.000796
HOMO:  -0.16012880936865048 LUMO:  -0.10244455009718298
Fermi energy:      -0.1307784568
[2.0000e+00 2.0000e+00 2.0000e+00 2.0000e+00 2.0000e+00 2.0000e+00
 2.0000e+00 2.0000e+00 2.0000e+00 2.0000e+00 2.0000e+00 2.0000e+00
 2.0000e+00 2.0000e+00 2.0000e+00 2.0000e+00 2.0000e+00 2.0000e+00
 2.0000e+00 2.0000e+00 2.0000e+00 2.0000e+00 2.0000e+00 2.0000e+00
 2.0000e+00 2.0000e+00 2.0000e+00 2.0000e+00 1.9993e+00 1.9985e+00
 1.9944e+00 6.8941e-03 9.2826e-04]
entropy correction =  -0.0005561764255350022
cycle= 4 E= -1070.69332916981  delta_E= -6.78e-11  |g|= 2.77e-06  |ddm|= 2.22e-05
HOMO:  -0.16012877552620533 LUMO:  -0.10244451300156367
Fermi energy:      -0.1307784000
[2.0000e+00 2.0000e+00 2.0000e+00 2.0000e+00 2.0000e+00 2.0000e+00
 2.0000e+00 2.0000e+00 2.0000e+00 2.0000e+00 2.0000e+00 2.0000e+00
 2.0000e+00 2.0000e+00 2.0000e+00 2.0000e+00 2.0000e+00 2.0000e+00
 2.0000e+00 2.0000e+00 2.0000e+00 2.0000e+00 2.0000e+00 2.0000e+00
 2.0000e+00 2.0000e+00 2.0000e+00 2.0000e+00 1.9993e+00 1.9985e+00
 1.9944e+00 6.8941e-03 9.2827e-04]
entropy correction =  -0.0005561796390654625
Extra cycle  E= -1070.69332916985  delta_E= -3.59e-11  |g|= 7.36e-06  |ddm|= 1.23e-05
<class 'pydmfet.qcwrap.pyscf_rks_ao.rks_ao'> does not have attributes  add_coredm_ext_energy coredm ne_frozen dm_guess vext_1e
entropy correction =  -0.0005561796390654625
level shift energy: 2.6359805757047994e-06
|P_frag + P_bath - P_ref| / N =  1.1931496368595143e-07
max(P_frag + P_bath - P_ref) =  3.6612989108286698e-06
