#INFO: **** input file is /tigress/xingz/pydmfet/examples/research/C20/C20.py ****
from pydmfet import locints, sdmfet,oep,tools,dfet_ao,proj_ao
from pydmfet.qcwrap.pyscf_rks_ao import rks_ao
from pyscf import gto, scf, ao2mo
import numpy as np
from pyscf.tools import molden
import time
from pydmfet import dfet_ao
from pydmfet.dfet_ao import dfet

bas ='ccpvdz'
temp = 0.0


mol = gto.Mole()
mol.atom = open('C20.xyz').read()
mol.basis = bas
mol.charge = 0
mol.build(max_memory = 4000, verbose=4)


#mf = scf.RHF(mol)
mf = rks_ao(mol,smear_sigma = temp)
mf.xc = "hf"
mf.max_cycle = 50

DMguess = None
mf.scf(dm0=DMguess)

natoms = mol.natm
impAtom = np.zeros([natoms], dtype=int)
for i in range(10):
    impAtom[i] = 1


embed = proj_ao.proj_embed(mf,impAtom, Ne_env = 40)
#embed.lo_method = 'boys'
embed.pop_method = 'meta_lowdin'
embed.pm_exponent = 2
embed.make_frozen_orbs(norb = 40)
embed.embedding_potential()

#INFO: ******************** input file end ********************


System: uname_result(system='Linux', node='tigercpu.princeton.edu', release='3.10.0-957.27.2.el7.x86_64', version='#1 SMP Tue Jul 30 11:12:20 EDT 2019', machine='x86_64', processor='x86_64')  Threads 40
Python 3.7.0 (default, Jun 28 2018, 13:15:42) 
[GCC 7.2.0]
numpy 1.16.4  scipy 1.4.0.dev0+0f78e0f
Date: Fri Aug 30 19:13:28 2019
PySCF version 1.5
PySCF path  /home/xingz/.local/lib/python3.7/site-packages/pyscf

[CONFIG] conf_file None
[INPUT] verbose = 4
[INPUT] num. atoms = 20
[INPUT] num. electrons = 80
[INPUT] charge = 0
[INPUT] spin (= nelec alpha-beta = 2S) = 0
[INPUT] symmetry False subgroup None
[INPUT] Mole.unit = angstrom
[INPUT]  1 C      0.000000000000   0.685950000000  -0.729760000000 AA    0.000000000000   1.296257635145  -1.379046536663 Bohr
[INPUT]  2 C      0.000000000000  -0.685950000000  -0.729760000000 AA    0.000000000000  -1.296257635145  -1.379046536663 Bohr
[INPUT]  3 C      0.000000000000  -1.440000000000  -1.892560000000 AA    0.000000000000  -2.721205619374  -3.576420074307 Bohr
[INPUT]  4 C      0.000000000000  -0.712450000000  -3.105130000000 AA    0.000000000000  -1.346335377446  -5.867845281171 Bohr
[INPUT]  5 C      0.000000000000   0.712450000000  -3.105130000000 AA    0.000000000000   1.346335377446  -5.867845281171 Bohr
[INPUT]  6 C      0.000000000000   1.440000000000  -1.892560000000 AA    0.000000000000   2.721205619374  -3.576420074307 Bohr
[INPUT]  7 H      0.000000000000  -2.521480000000  -1.870960000000 AA    0.000000000000  -4.764906628568  -3.535601990016 Bohr
[INPUT]  8 H      0.000000000000  -1.246150000000  -4.046500000000 AA    0.000000000000  -2.354882210127  -7.646776763053 Bohr
[INPUT]  9 H      0.000000000000   1.246150000000  -4.046500000000 AA    0.000000000000   2.354882210127  -7.646776763053 Bohr
[INPUT] 10 H      0.000000000000   2.521480000000  -1.870960000000 AA    0.000000000000   4.764906628568  -3.535601990016 Bohr
[INPUT] 11 C      0.000000000000   0.685950000000   0.729760000000 AA    0.000000000000   1.296257635145   1.379046536663 Bohr
[INPUT] 12 C      0.000000000000  -0.685950000000   0.729760000000 AA    0.000000000000  -1.296257635145   1.379046536663 Bohr
[INPUT] 13 C      0.000000000000  -1.440000000000   1.892560000000 AA    0.000000000000  -2.721205619374   3.576420074307 Bohr
[INPUT] 14 C      0.000000000000  -0.712450000000   3.105130000000 AA    0.000000000000  -1.346335377446   5.867845281171 Bohr
[INPUT] 15 C      0.000000000000   0.712450000000   3.105130000000 AA    0.000000000000   1.346335377446   5.867845281171 Bohr
[INPUT] 16 C      0.000000000000   1.440000000000   1.892560000000 AA    0.000000000000   2.721205619374   3.576420074307 Bohr
[INPUT] 17 H      0.000000000000  -2.521480000000   1.870960000000 AA    0.000000000000  -4.764906628568   3.535601990016 Bohr
[INPUT] 18 H      0.000000000000  -1.246150000000   4.046500000000 AA    0.000000000000  -2.354882210127   7.646776763053 Bohr
[INPUT] 19 H      0.000000000000   1.246150000000   4.046500000000 AA    0.000000000000   2.354882210127   7.646776763053 Bohr
[INPUT] 20 H      0.000000000000   2.521480000000   1.870960000000 AA    0.000000000000   4.764906628568   3.535601990016 Bohr

nuclear repulsion = 593.488366878612
number of shells = 84
number of NR pGTOs = 368
number of NR cGTOs = 208
basis = ccpvdz
ecp = {}
CPU time:         1.87
rks_ao.ne_frozen =  0


******** <class 'pydmfet.qcwrap.pyscf_rks_ao.rks_ao'> flags ********
method = rks_ao-RKS-RHF
initial guess = minao
damping factor = 0
level shift factor = 0
DIIS = <class 'pyscf.scf.diis.CDIIS'>
DIIS start cycle = 1
DIIS space = 8
SCF tol = 1e-09
SCF gradient tol = None
max. SCF cycles = 50
direct_scf = False
chkfile to save SCF result = /tigress/xingz/pydmfet/examples/research/C20/tmpzysm2lid
max_memory 4000 MB (current use 74 MB)
XC functionals = hf
small_rho_cutoff = 1e-07
radial grids: 
    Treutler-Ahlrichs (JCP 102, 346 (M4)) radial grids
    
becke partition: Becke, JCP, 88, 2547 (1988)
pruning grids: <function nwchem_prune at 0x2b32f4146400>
grids dens level: 3
symmetrized grids: False
atomic radii adjust function: <function treutler_atomic_radii_adjust at 0x2b32f4146378>
Set gradient conv threshold to 3.16228e-05
tot grids = 247016
init E= -464.506509339174
HOMO:  -0.2148752946731676 LUMO:  -0.06391235744570474
Fermi energy:      -0.2148752947
[2. 2. 2. 2. 2. 2. 2. 2. 2. 2. 2. 2. 2. 2. 2. 2. 2. 2. 2. 2. 2. 2. 2. 2.
 2. 2. 2. 2. 2. 2. 2. 2. 2. 2. 2. 2. 2. 2. 2. 2.]
cycle= 1 E= -458.916262494594  delta_E= 5.59  |g|= 0.547  |ddm|= 5.11
HOMO:  -0.24808228657557407 LUMO:  0.0820499091979755
Fermi energy:      -0.2480822866
[2. 2. 2. 2. 2. 2. 2. 2. 2. 2. 2. 2. 2. 2. 2. 2. 2. 2. 2. 2. 2. 2. 2. 2.
 2. 2. 2. 2. 2. 2. 2. 2. 2. 2. 2. 2. 2. 2. 2. 2.]
cycle= 2 E= -459.027412795741  delta_E= -0.111  |g|= 0.153  |ddm|= 1.26
HOMO:  -0.2734925577684881 LUMO:  0.06471540966935398
Fermi energy:      -0.2734925578
[2. 2. 2. 2. 2. 2. 2. 2. 2. 2. 2. 2. 2. 2. 2. 2. 2. 2. 2. 2. 2. 2. 2. 2.
 2. 2. 2. 2. 2. 2. 2. 2. 2. 2. 2. 2. 2. 2. 2. 2.]
cycle= 3 E= -459.035545722621  delta_E= -0.00813  |g|= 0.0779  |ddm|= 0.402
HOMO:  -0.2609105924208997 LUMO:  0.07841121155150146
Fermi energy:      -0.2609105924
[2. 2. 2. 2. 2. 2. 2. 2. 2. 2. 2. 2. 2. 2. 2. 2. 2. 2. 2. 2. 2. 2. 2. 2.
 2. 2. 2. 2. 2. 2. 2. 2. 2. 2. 2. 2. 2. 2. 2. 2.]
cycle= 4 E= -459.037160350638  delta_E= -0.00161  |g|= 0.0198  |ddm|= 0.126
HOMO:  -0.26120345395504013 LUMO:  0.07805853943226719
Fermi energy:      -0.2612034540
[2. 2. 2. 2. 2. 2. 2. 2. 2. 2. 2. 2. 2. 2. 2. 2. 2. 2. 2. 2. 2. 2. 2. 2.
 2. 2. 2. 2. 2. 2. 2. 2. 2. 2. 2. 2. 2. 2. 2. 2.]
cycle= 5 E= -459.037271159226  delta_E= -0.000111  |g|= 0.00395  |ddm|= 0.0217
HOMO:  -0.2616620186560415 LUMO:  0.07794197473036914
Fermi energy:      -0.2616620187
[2. 2. 2. 2. 2. 2. 2. 2. 2. 2. 2. 2. 2. 2. 2. 2. 2. 2. 2. 2. 2. 2. 2. 2.
 2. 2. 2. 2. 2. 2. 2. 2. 2. 2. 2. 2. 2. 2. 2. 2.]
cycle= 6 E= -459.037277888283  delta_E= -6.73e-06  |g|= 0.000842  |ddm|= 0.00705
HOMO:  -0.2615932979554152 LUMO:  0.0780823252515056
Fermi energy:      -0.2615932980
[2. 2. 2. 2. 2. 2. 2. 2. 2. 2. 2. 2. 2. 2. 2. 2. 2. 2. 2. 2. 2. 2. 2. 2.
 2. 2. 2. 2. 2. 2. 2. 2. 2. 2. 2. 2. 2. 2. 2. 2.]
cycle= 7 E= -459.037278581557  delta_E= -6.93e-07  |g|= 0.000422  |ddm|= 0.00198
HOMO:  -0.2616198363340115 LUMO:  0.07810184629240974
Fermi energy:      -0.2616198363
[2. 2. 2. 2. 2. 2. 2. 2. 2. 2. 2. 2. 2. 2. 2. 2. 2. 2. 2. 2. 2. 2. 2. 2.
 2. 2. 2. 2. 2. 2. 2. 2. 2. 2. 2. 2. 2. 2. 2. 2.]
cycle= 8 E= -459.037278807092  delta_E= -2.26e-07  |g|= 0.000174  |ddm|= 0.00123
HOMO:  -0.2616448749017538 LUMO:  0.07808697896852047
Fermi energy:      -0.2616448749
[2. 2. 2. 2. 2. 2. 2. 2. 2. 2. 2. 2. 2. 2. 2. 2. 2. 2. 2. 2. 2. 2. 2. 2.
 2. 2. 2. 2. 2. 2. 2. 2. 2. 2. 2. 2. 2. 2. 2. 2.]
cycle= 9 E= -459.037278853952  delta_E= -4.69e-08  |g|= 5.43e-05  |ddm|= 0.000667
HOMO:  -0.26164319353694 LUMO:  0.07808734541275669
Fermi energy:      -0.2616431935
[2. 2. 2. 2. 2. 2. 2. 2. 2. 2. 2. 2. 2. 2. 2. 2. 2. 2. 2. 2. 2. 2. 2. 2.
 2. 2. 2. 2. 2. 2. 2. 2. 2. 2. 2. 2. 2. 2. 2. 2.]
cycle= 10 E= -459.037278858597  delta_E= -4.64e-09  |g|= 1.63e-05  |ddm|= 0.000223
HOMO:  -0.2616431996733879 LUMO:  0.07808562530535974
Fermi energy:      -0.2616431997
[2. 2. 2. 2. 2. 2. 2. 2. 2. 2. 2. 2. 2. 2. 2. 2. 2. 2. 2. 2. 2. 2. 2. 2.
 2. 2. 2. 2. 2. 2. 2. 2. 2. 2. 2. 2. 2. 2. 2. 2.]
cycle= 11 E= -459.037278859008  delta_E= -4.11e-10  |g|= 4.3e-06  |ddm|= 7.49e-05
HOMO:  -0.2616432443753739 LUMO:  0.07808538768253251
Fermi energy:      -0.2616432444
[2. 2. 2. 2. 2. 2. 2. 2. 2. 2. 2. 2. 2. 2. 2. 2. 2. 2. 2. 2. 2. 2. 2. 2.
 2. 2. 2. 2. 2. 2. 2. 2. 2. 2. 2. 2. 2. 2. 2. 2.]
Extra cycle  E= -459.037278859016  delta_E= -7.73e-12  |g|= 2.03e-06  |ddm|= 1.12e-05
converged SCF energy = -459.037278859016


******** <class 'pyscf.lo.pipek.PipekMezey'> flags ********
conv_tol = 1e-06
conv_tol_grad = None
max_cycle = 100
max_stepsize = 0.05
max_iters = 20
kf_interval = 5
kf_trust_region = 5
ah_start_tol = 1000000000.0
ah_start_cycle = 1
ah_level_shift = 0
ah_conv_tol = 1e-12
ah_lindep = 1e-14
ah_max_cycle = 40
ah_trust_region = 3
init_guess = atomic
pop_method = meta_lowdin
Set conv_tol_grad to 0.000316228
macro= 1  f(x)= 6.4926662977278  delta_f= 6.49267  |g|= 0.35011  4 KF 22 Hx
macro= 2  f(x)= 7.0254879524692  delta_f= 0.532822  |g|= 0.303921  4 KF 22 Hx
macro= 3  f(x)= 7.8344211807208  delta_f= 0.808933  |g|= 0.517205  4 KF 21 Hx
macro= 4  f(x)= 8.6952743092489  delta_f= 0.860853  |g|= 0.459302  4 KF 21 Hx
macro= 5  f(x)= 9.3937400966551  delta_f= 0.698466  |g|= 0.694955  4 KF 20 Hx
macro= 6  f(x)= 10.97714198724  delta_f= 1.5834  |g|= 0.758824  4 KF 20 Hx
macro= 7  f(x)= 12.755160743559  delta_f= 1.77802  |g|= 0.860532  4 KF 20 Hx
macro= 8  f(x)= 13.882024190452  delta_f= 1.12686  |g|= 0.889145  3 KF 20 Hx
macro= 9  f(x)= 14.509759678981  delta_f= 0.627735  |g|= 0.526577  3 KF 21 Hx
macro= 10  f(x)= 14.738269456479  delta_f= 0.22851  |g|= 0.210624  3 KF 10 Hx
macro= 11  f(x)= 14.776731218743  delta_f= 0.0384618  |g|= 0.0154987  4 KF 17 Hx
macro= 12  f(x)= 14.939737039498  delta_f= 0.163006  |g|= 0.117888  1 KF 6 Hx
macro= 13  f(x)= 16.283612311078  delta_f= 1.34388  |g|= 0.951785  4 KF 20 Hx
macro= 14  f(x)= 17.354564587312  delta_f= 1.07095  |g|= 0.924997  3 KF 20 Hx
macro= 15  f(x)= 17.735409909926  delta_f= 0.380845  |g|= 0.145544  3 KF 9 Hx
macro= 16  f(x)= 17.741543134874  delta_f= 0.00613322  |g|= 0.0113072  3 KF 10 Hx
macro= 17  f(x)= 17.74158872675  delta_f= 4.55919e-05  |g|= 0.000975948  2 KF 9 Hx
macro= 18  f(x)= 17.743765710916  delta_f= 0.00217698  |g|= 0.00205438  1 KF 4 Hx
macro= 19  f(x)= 17.770645787636  delta_f= 0.0268801  |g|= 0.0172824  1 KF 4 Hx
macro= 20  f(x)= 17.909205011123  delta_f= 0.138559  |g|= 0.100683  1 KF 4 Hx
macro= 21  f(x)= 19.517552881272  delta_f= 1.60835  |g|= 0.532525  4 KF 21 Hx
macro= 22  f(x)= 20.074105612616  delta_f= 0.556553  |g|= 0.445784  4 KF 21 Hx
macro= 23  f(x)= 20.308944859026  delta_f= 0.234839  |g|= 0.335843  4 KF 22 Hx
macro= 24  f(x)= 20.419718627984  delta_f= 0.110774  |g|= 0.0535522  3 KF 9 Hx
macro= 25  f(x)= 20.420846497874  delta_f= 0.00112787  |g|= 0.00393152  3 KF 10 Hx
macro= 26  f(x)= 20.420665539705  delta_f= -0.000180958  |g|= 0.00208182  2 KF 7 Hx
macro= 27  f(x)= 20.420588860401  delta_f= -7.66793e-05  |g|= 0.000524989  2 KF 10 Hx
macro= 28  f(x)= 20.42058148074  delta_f= -7.37966e-06  |g|= 0.000306947  1 KF 9 Hx
macro= 29  f(x)= 20.42058148071  delta_f= -3.00666e-11  |g|= 6.53372e-05  1 KF 1 Hx
macro X = 29  f(x)= 20.42058148071  |g|= 6.53372e-05  58 intor 84 KF 410 Hx
  sorted Mulliken popupaltion: 1.0 for fully occupied
1.027498e+00 1.023769e+00 1.001291e+00 9.999993e-01 9.998643e-01 
9.998147e-01 9.998062e-01 9.993990e-01 9.993265e-01 9.992448e-01 
9.992445e-01 9.950280e-01 9.938392e-01 9.938390e-01 5.079006e-01 
5.061809e-01 5.057485e-01 5.049335e-01 5.001141e-01 5.000424e-01 
5.000309e-01 5.000087e-01 4.999731e-01 4.999531e-01 4.998900e-01 
4.995401e-01 6.160870e-03 6.160829e-03 4.972052e-03 7.556238e-04 
7.555268e-04 6.087422e-04 6.013528e-04 1.865236e-04 1.864638e-04 
6.810871e-07 -1.285008e-03 -2.376277e-02 -2.381078e-02 -2.781050e-02 
20 enviroment orbitals kept frozen.
rks_ao.ne_frozen =  40
Set gradient conv threshold to 3.16228e-05
tot grids = 247016
init E= -459.037278873165
HOMO:  -0.3365210004313194 LUMO:  0.07808565630262132
Fermi energy:      -0.3365210004
[2. 2. 2. 2. 2. 2. 2. 2. 2. 2. 2. 2. 2. 2. 2. 2. 2. 2. 2. 2.]
cycle= 1 E= -459.037828579178  delta_E= -0.00055  |g|= 0.000229  |ddm|= 0.000116
HOMO:  -0.33654705994744666 LUMO:  0.0780870446479693
Fermi energy:      -0.3365470599
[2. 2. 2. 2. 2. 2. 2. 2. 2. 2. 2. 2. 2. 2. 2. 2. 2. 2. 2. 2.]
cycle= 2 E= -459.037828582015  delta_E= -2.84e-09  |g|= 8.47e-05  |ddm|= 0.000149
HOMO:  -0.336537250627165 LUMO:  0.07808702222831658
Fermi energy:      -0.3365372506
[2. 2. 2. 2. 2. 2. 2. 2. 2. 2. 2. 2. 2. 2. 2. 2. 2. 2. 2. 2.]
cycle= 3 E= -459.037828582492  delta_E= -4.77e-10  |g|= 9.66e-06  |ddm|= 4.45e-05
HOMO:  -0.3365378015342295 LUMO:  0.07808741205721402
Fermi energy:      -0.3365378015
[2. 2. 2. 2. 2. 2. 2. 2. 2. 2. 2. 2. 2. 2. 2. 2. 2. 2. 2. 2.]
Extra cycle  E= -459.037828582497  delta_E= -5.23e-12  |g|= 7.74e-06  |ddm|= 1.33e-05
<class 'pydmfet.qcwrap.pyscf_rks_ao.rks_ao'> does not have attributes  ne_frozen vext_1e coredm add_coredm_ext_energy dm_guess
level shift energy: 0.0005497161017045116
|P_frag + P_bath - P_ref| / N =  8.806492874037997e-07
max(P_frag + P_bath - P_ref) =  0.00010863990576570615
