#INFO: **** input file is /tigress/xingz/pydmfet/examples/research/Al12/dmfet/least/Al12.py ****
from pydmfet import locints, sdmfet, oep, tools, dfet_ao, proj_ao
from pydmfet.dfet_ao import dfet
from pydmfet.qcwrap.pyscf_rks_ao import rks_ao
from pyscf import gto, scf,dft, ao2mo,cc
import numpy as np
from pyscf.tools import molden, cubegen
import copy,time
from pydmfet.tools.sym import h_lattice_sym_tab

bas = 'stuttgartdz'
ecp = 'stuttgartdz'
temp = 0.005


mol = gto.Mole()
mol.atom = open('Al12.xyz').read()
mol.basis = bas
mol.ecp = ecp
mol.build(max_memory = 4000, verbose=4)

mf = rks_ao(mol,smear_sigma = temp)
mf.xc = 'pbe,pbe'
mf.max_cycle = 50
mf.scf(dm0=None)

natoms = mol.natm
impAtom = np.zeros([natoms], dtype=int)
for i in range(6):
    impAtom[i] = 1

ghost_frag = 1-impAtom
ghost_env = 1-ghost_frag

mol_frag = gto.Mole()
mol_frag.atom = tools.add_ghost(mol.atom, ghost_frag)
mol_frag.basis = bas
mol_frag.ecp = ecp
mol_frag.build(max_memory = 4000,verbose = 4)

mol_env = gto.Mole()
mol_env.atom = tools.add_ghost(mol.atom, ghost_env)
mol_env.basis =  bas
mol_env.ecp = ecp
mol_env.build(max_memory = 4000,verbose = 4)

Ne_frag = 18
Ne_env = 18

boundary_atoms = None
boundary_atoms2 =None

umat = None
umat = np.load("umat.npy")

params = oep.OEPparams(algorithm = 'leastsq', opt_method = 'L-BFGS-B', diffP_tol=1e-3, outer_maxit = 10)
params.options['ftol'] = 1e-10
params.options['gtol'] = 1e-4
params.options['maxiter'] = 100
params.options['svd_thresh'] = 1e-5

theDMFET = dfet.DFET(mf, mol_frag, mol_env,Ne_frag,Ne_env,\
                     boundary_atoms=boundary_atoms, boundary_atoms2=boundary_atoms2,umat = umat,\
                     oep_params=params, smear_sigma=temp, ecw_method = 'hf',mf_method = mf.xc, plot_dens=True)

umat = theDMFET.embedding_potential()
#INFO: ******************** input file end ********************


System: uname_result(system='Linux', node='tiger-h23c2n15', release='3.10.0-957.27.2.el7.x86_64', version='#1 SMP Tue Jul 30 11:12:20 EDT 2019', machine='x86_64', processor='x86_64')  Threads 40
Python 3.7.0 (default, Jun 28 2018, 13:15:42) 
[GCC 7.2.0]
numpy 1.16.4  scipy 1.4.0.dev0+0f78e0f
Date: Wed Aug 21 03:32:46 2019
PySCF version 1.5
PySCF path  /home/xingz/.local/lib/python3.7/site-packages/pyscf

[CONFIG] conf_file None
[INPUT] verbose = 4
[INPUT] num. atoms = 12
[INPUT] num. electrons = 36
[INPUT] charge = 0
[INPUT] spin (= nelec alpha-beta = 2S) = 0
[INPUT] symmetry False subgroup None
[INPUT] Mole.unit = angstrom
[INPUT]  1 Al     8.092960000000   4.046480000000  -0.000000000000 AA   15.293477937060   7.646738968530  -0.000000000000 Bohr
[INPUT]  2 Al     8.092960000000   6.069720000000  -2.023240000000 AA   15.293477937060  11.470108452795  -3.823369484265 Bohr
[INPUT]  3 Al    10.116200000000   4.046480000000  -2.023240000000 AA   19.116847421325   7.646738968530  -3.823369484265 Bohr
[INPUT]  4 Al     6.069720000000   4.046480000000  -2.023240000000 AA   11.470108452795   7.646738968530  -3.823369484265 Bohr
[INPUT]  5 Al     8.092960000000   2.023240000000  -2.023240000000 AA   15.293477937060   3.823369484265  -3.823369484265 Bohr
[INPUT]  6 Al     8.092960000000   4.046480000000  -4.046480000000 AA   15.293477937060   7.646738968530  -7.646738968530 Bohr
[INPUT]  7 Al     6.069720000000   6.069720000000  -0.000000000000 AA   11.470108452795  11.470108452795  -0.000000000000 Bohr
[INPUT]  8 Al    10.116200000000   2.023240000000  -0.000000000000 AA   19.116847421325   3.823369484265  -0.000000000000 Bohr
[INPUT]  9 Al    10.116200000000   6.069720000000  -4.046480000000 AA   19.116847421325  11.470108452795  -7.646738968530 Bohr
[INPUT] 10 Al     6.069720000000   2.023240000000  -0.000000000000 AA   11.470108452795   3.823369484265  -0.000000000000 Bohr
[INPUT] 11 Al     6.069720000000   6.069720000000  -4.046480000000 AA   11.470108452795  11.470108452795  -7.646738968530 Bohr
[INPUT] 12 Al    10.116200000000   2.023240000000  -4.046480000000 AA   19.116847421325   3.823369484265  -7.646738968530 Bohr

nuclear repulsion = 84.8573926838199
number of shells = 48
number of NR pGTOs = 192
number of NR cGTOs = 96
basis = stuttgartdz
ecp = stuttgartdz
CPU time:         4.81
rks_ao.ne_frozen =  0


******** <class 'pydmfet.qcwrap.pyscf_rks_ao.rks_ao'> flags ********
method = rks_ao-RKS-RHF
initial guess = minao
damping factor = 0
level shift factor = 0
DIIS = <class 'pyscf.scf.diis.CDIIS'>
DIIS start cycle = 1
DIIS space = 8
SCF tol = 1e-09
SCF gradient tol = None
max. SCF cycles = 50
direct_scf = False
chkfile to save SCF result = /tmp/tmpur7b9q7e
max_memory 4000 MB (current use 66 MB)
XC functionals = pbe,pbe
small_rho_cutoff = 1e-07
radial grids: 
    Treutler-Ahlrichs (JCP 102, 346 (M4)) radial grids
    
becke partition: Becke, JCP, 88, 2547 (1988)
pruning grids: <function nwchem_prune at 0x2ad02cfbb400>
grids dens level: 3
symmetrized grids: False
atomic radii adjust function: <function treutler_atomic_radii_adjust at 0x2ad02cfbb378>
Set gradient conv threshold to 3.16228e-05
tot grids = 220800
init E= -21.344783658299
HOMO:  -0.0964087524766544 LUMO:  -0.08910626015727999
Fermi energy:      -0.0887572500
[2.     2.     2.     2.     2.     2.     2.     2.     2.     2.
 2.     2.     1.9995 1.9096 1.7557 1.7557 1.6441 1.6441 1.0349 0.2163
 0.02   0.02  ]
entropy correction =  -0.03012640112055574
cycle= 1 E= -24.0317931623434  delta_E= -2.69  |g|= 0.653  |ddm|= 6.67
HOMO:  -0.23116268121406489 LUMO:  -0.23116268121406305
Fermi energy:      -0.2358858179
[2.     2.     2.     2.     2.     2.     2.     2.     2.     2.
 2.     2.     2.     1.9989 1.9981 1.9981 1.9963 0.5599 0.5599 0.4393
 0.4393 0.0101]
entropy correction =  -0.023039333382988178
cycle= 2 E= -22.7589412389303  delta_E= 1.27  |g|= 1.61  |ddm|= 4.31
HOMO:  -0.1864794289436324 LUMO:  -0.17551521715008805
Fermi energy:      -0.1766937420
[2.     2.     2.     2.     2.     2.     2.     2.     2.     2.
 2.     2.     1.9995 1.9702 1.7766 1.7766 1.7524 1.7524 0.8827 0.0807
 0.0044 0.0044]
entropy correction =  -0.024152976140203335
cycle= 3 E= -24.1577819139602  delta_E= -1.4  |g|= 0.177  |ddm|= 3.48
HOMO:  -0.1672330936464327 LUMO:  -0.16668219584287092
Fermi energy:      -0.1626445453
[2.     2.     2.     2.     2.     2.     2.     2.     2.     2.
 2.     2.     1.9999 1.922  1.8341 1.8341 1.4292 1.4292 1.3832 0.1196
 0.0244 0.0244]
entropy correction =  -0.029092388982086166
cycle= 4 E= -24.1758252803637  delta_E= -0.018  |g|= 0.0887  |ddm|= 0.83
HOMO:  -0.1691327019218613 LUMO:  -0.16476599946425968
Fermi energy:      -0.1627185946
[2.     2.     2.     2.     2.     2.     2.     2.     2.     2.
 2.     2.     1.9998 1.9364 1.7964 1.7964 1.5659 1.5659 1.2019 0.1144
 0.0115 0.0115]
entropy correction =  -0.028086976616488665
cycle= 5 E= -24.1831548018881  delta_E= -0.00733  |g|= 0.00917  |ddm|= 0.293
HOMO:  -0.17049749264549463 LUMO:  -0.16611814497689373
Fermi energy:      -0.1641279001
[2.     2.     2.     2.     2.     2.     2.     2.     2.     2.
 2.     2.     1.9999 1.9389 1.802  1.802  1.5628 1.5628 1.1964 0.1103
 0.0124 0.0124]
entropy correction =  -0.027959631237355145
cycle= 6 E= -24.1832343076199  delta_E= -7.95e-05  |g|= 0.00113  |ddm|= 0.0422
HOMO:  -0.17058528293727954 LUMO:  -0.16630331880958105
Fermi energy:      -0.1642599608
[2.     2.     2.     2.     2.     2.     2.     2.     2.     2.
 2.     2.     1.9999 1.9387 1.8025 1.8025 1.5598 1.5598 1.2015 0.1105
 0.0124 0.0124]
entropy correction =  -0.027983238069822624
cycle= 7 E= -24.1832355424434  delta_E= -1.23e-06  |g|= 0.000895  |ddm|= 0.00747
HOMO:  -0.17054731833018433 LUMO:  -0.16621690815491427
Fermi energy:      -0.1641961314
[2.     2.     2.     2.     2.     2.     2.     2.     2.     2.
 2.     2.     1.9999 1.9385 1.8018 1.8018 1.5616 1.5616 1.1994 0.1109
 0.0124 0.0124]
entropy correction =  -0.027989016591825875
cycle= 8 E= -24.1832361917856  delta_E= -6.49e-07  |g|= 7.71e-05  |ddm|= 0.00356
HOMO:  -0.17053508515519156 LUMO:  -0.16621147282032087
Fermi energy:      -0.1641878969
[2.     2.     2.     2.     2.     2.     2.     2.     2.     2.
 2.     2.     1.9999 1.9385 1.8019 1.8019 1.5613 1.5613 1.1996 0.1108
 0.0124 0.0124]
entropy correction =  -0.027988384491849233
cycle= 9 E= -24.1832362012558  delta_E= -9.47e-09  |g|= 2.11e-05  |ddm|= 0.000544
HOMO:  -0.17053203701282338 LUMO:  -0.16620777273045187
Fermi energy:      -0.1641845192
[2.     2.     2.     2.     2.     2.     2.     2.     2.     2.
 2.     2.     1.9999 1.9385 1.8019 1.8019 1.5613 1.5613 1.1996 0.1108
 0.0124 0.0124]
entropy correction =  -0.02798810871278108
cycle= 10 E= -24.1832362015519  delta_E= -2.96e-10  |g|= 3.03e-06  |ddm|= 6.6e-05
HOMO:  -0.17053311709631588 LUMO:  -0.16620885001250152
Fermi energy:      -0.1641855888
[2.     2.     2.     2.     2.     2.     2.     2.     2.     2.
 2.     2.     1.9999 1.9385 1.8019 1.8019 1.5613 1.5613 1.1996 0.1108
 0.0124 0.0124]
entropy correction =  -0.02798811884046319
Extra cycle  E= -24.1832362015497  delta_E= 2.17e-12  |g|= 3.71e-06  |ddm|= 1.75e-05
converged SCF energy = -24.1832362015497
#INFO: **** input file is /tigress/xingz/pydmfet/examples/research/Al12/dmfet/least/Al12.py ****
from pydmfet import locints, sdmfet, oep, tools, dfet_ao, proj_ao
from pydmfet.dfet_ao import dfet
from pydmfet.qcwrap.pyscf_rks_ao import rks_ao
from pyscf import gto, scf,dft, ao2mo,cc
import numpy as np
from pyscf.tools import molden, cubegen
import copy,time
from pydmfet.tools.sym import h_lattice_sym_tab

bas = 'stuttgartdz'
ecp = 'stuttgartdz'
temp = 0.005


mol = gto.Mole()
mol.atom = open('Al12.xyz').read()
mol.basis = bas
mol.ecp = ecp
mol.build(max_memory = 4000, verbose=4)

mf = rks_ao(mol,smear_sigma = temp)
mf.xc = 'pbe,pbe'
mf.max_cycle = 50
mf.scf(dm0=None)

natoms = mol.natm
impAtom = np.zeros([natoms], dtype=int)
for i in range(6):
    impAtom[i] = 1

ghost_frag = 1-impAtom
ghost_env = 1-ghost_frag

mol_frag = gto.Mole()
mol_frag.atom = tools.add_ghost(mol.atom, ghost_frag)
mol_frag.basis = bas
mol_frag.ecp = ecp
mol_frag.build(max_memory = 4000,verbose = 4)

mol_env = gto.Mole()
mol_env.atom = tools.add_ghost(mol.atom, ghost_env)
mol_env.basis =  bas
mol_env.ecp = ecp
mol_env.build(max_memory = 4000,verbose = 4)

Ne_frag = 18
Ne_env = 18

boundary_atoms = None
boundary_atoms2 =None

umat = None
umat = np.load("umat.npy")

params = oep.OEPparams(algorithm = 'leastsq', opt_method = 'L-BFGS-B', diffP_tol=1e-3, outer_maxit = 10)
params.options['ftol'] = 1e-10
params.options['gtol'] = 1e-4
params.options['maxiter'] = 100
params.options['svd_thresh'] = 1e-5

theDMFET = dfet.DFET(mf, mol_frag, mol_env,Ne_frag,Ne_env,\
                     boundary_atoms=boundary_atoms, boundary_atoms2=boundary_atoms2,umat = umat,\
                     oep_params=params, smear_sigma=temp, ecw_method = 'hf',mf_method = mf.xc, plot_dens=True)

umat = theDMFET.embedding_potential()
#INFO: ******************** input file end ********************


System: uname_result(system='Linux', node='tiger-h23c2n15', release='3.10.0-957.27.2.el7.x86_64', version='#1 SMP Tue Jul 30 11:12:20 EDT 2019', machine='x86_64', processor='x86_64')  Threads 40
Python 3.7.0 (default, Jun 28 2018, 13:15:42) 
[GCC 7.2.0]
numpy 1.16.4  scipy 1.4.0.dev0+0f78e0f
Date: Wed Aug 21 03:32:59 2019
PySCF version 1.5
PySCF path  /home/xingz/.local/lib/python3.7/site-packages/pyscf

[CONFIG] conf_file None
[INPUT] verbose = 4
[INPUT] num. atoms = 12
[INPUT] num. electrons = 18
[INPUT] charge = 0
[INPUT] spin (= nelec alpha-beta = 2S) = 0
[INPUT] symmetry False subgroup None
[INPUT] Mole.unit = angstrom
[INPUT]  1 Al     8.092960000000   4.046480000000  -0.000000000000 AA   15.293477937060   7.646738968530  -0.000000000000 Bohr
[INPUT]  2 Al     8.092960000000   6.069720000000  -2.023240000000 AA   15.293477937060  11.470108452795  -3.823369484265 Bohr
[INPUT]  3 Al    10.116200000000   4.046480000000  -2.023240000000 AA   19.116847421325   7.646738968530  -3.823369484265 Bohr
[INPUT]  4 Al     6.069720000000   4.046480000000  -2.023240000000 AA   11.470108452795   7.646738968530  -3.823369484265 Bohr
[INPUT]  5 Al     8.092960000000   2.023240000000  -2.023240000000 AA   15.293477937060   3.823369484265  -3.823369484265 Bohr
[INPUT]  6 Al     8.092960000000   4.046480000000  -4.046480000000 AA   15.293477937060   7.646738968530  -7.646738968530 Bohr
[INPUT]  7 GHOST-Al   6.069720000000   6.069720000000  -0.000000000000 AA   11.470108452795  11.470108452795  -0.000000000000 Bohr
[INPUT]  8 GHOST-Al  10.116200000000   2.023240000000  -0.000000000000 AA   19.116847421325   3.823369484265  -0.000000000000 Bohr
[INPUT]  9 GHOST-Al  10.116200000000   6.069720000000  -4.046480000000 AA   19.116847421325  11.470108452795  -7.646738968530 Bohr
[INPUT] 10 GHOST-Al   6.069720000000   2.023240000000  -0.000000000000 AA   11.470108452795   3.823369484265  -0.000000000000 Bohr
[INPUT] 11 GHOST-Al   6.069720000000   6.069720000000  -4.046480000000 AA   11.470108452795  11.470108452795  -7.646738968530 Bohr
[INPUT] 12 GHOST-Al  10.116200000000   2.023240000000  -4.046480000000 AA   19.116847421325   3.823369484265  -7.646738968530 Bohr

nuclear repulsion = 23.5047992975816
number of shells = 48
number of NR pGTOs = 192
number of NR cGTOs = 96
basis = stuttgartdz
ecp = stuttgartdz
CPU time:       344.79
#INFO: **** input file is /tigress/xingz/pydmfet/examples/research/Al12/dmfet/least/Al12.py ****
from pydmfet import locints, sdmfet, oep, tools, dfet_ao, proj_ao
from pydmfet.dfet_ao import dfet
from pydmfet.qcwrap.pyscf_rks_ao import rks_ao
from pyscf import gto, scf,dft, ao2mo,cc
import numpy as np
from pyscf.tools import molden, cubegen
import copy,time
from pydmfet.tools.sym import h_lattice_sym_tab

bas = 'stuttgartdz'
ecp = 'stuttgartdz'
temp = 0.005


mol = gto.Mole()
mol.atom = open('Al12.xyz').read()
mol.basis = bas
mol.ecp = ecp
mol.build(max_memory = 4000, verbose=4)

mf = rks_ao(mol,smear_sigma = temp)
mf.xc = 'pbe,pbe'
mf.max_cycle = 50
mf.scf(dm0=None)

natoms = mol.natm
impAtom = np.zeros([natoms], dtype=int)
for i in range(6):
    impAtom[i] = 1

ghost_frag = 1-impAtom
ghost_env = 1-ghost_frag

mol_frag = gto.Mole()
mol_frag.atom = tools.add_ghost(mol.atom, ghost_frag)
mol_frag.basis = bas
mol_frag.ecp = ecp
mol_frag.build(max_memory = 4000,verbose = 4)

mol_env = gto.Mole()
mol_env.atom = tools.add_ghost(mol.atom, ghost_env)
mol_env.basis =  bas
mol_env.ecp = ecp
mol_env.build(max_memory = 4000,verbose = 4)

Ne_frag = 18
Ne_env = 18

boundary_atoms = None
boundary_atoms2 =None

umat = None
umat = np.load("umat.npy")

params = oep.OEPparams(algorithm = 'leastsq', opt_method = 'L-BFGS-B', diffP_tol=1e-3, outer_maxit = 10)
params.options['ftol'] = 1e-10
params.options['gtol'] = 1e-4
params.options['maxiter'] = 100
params.options['svd_thresh'] = 1e-5

theDMFET = dfet.DFET(mf, mol_frag, mol_env,Ne_frag,Ne_env,\
                     boundary_atoms=boundary_atoms, boundary_atoms2=boundary_atoms2,umat = umat,\
                     oep_params=params, smear_sigma=temp, ecw_method = 'hf',mf_method = mf.xc, plot_dens=True)

umat = theDMFET.embedding_potential()
#INFO: ******************** input file end ********************


System: uname_result(system='Linux', node='tiger-h23c2n15', release='3.10.0-957.27.2.el7.x86_64', version='#1 SMP Tue Jul 30 11:12:20 EDT 2019', machine='x86_64', processor='x86_64')  Threads 40
Python 3.7.0 (default, Jun 28 2018, 13:15:42) 
[GCC 7.2.0]
numpy 1.16.4  scipy 1.4.0.dev0+0f78e0f
Date: Wed Aug 21 03:32:59 2019
PySCF version 1.5
PySCF path  /home/xingz/.local/lib/python3.7/site-packages/pyscf

[CONFIG] conf_file None
[INPUT] verbose = 4
[INPUT] num. atoms = 12
[INPUT] num. electrons = 18
[INPUT] charge = 0
[INPUT] spin (= nelec alpha-beta = 2S) = 0
[INPUT] symmetry False subgroup None
[INPUT] Mole.unit = angstrom
[INPUT]  1 GHOST-Al   8.092960000000   4.046480000000  -0.000000000000 AA   15.293477937060   7.646738968530  -0.000000000000 Bohr
[INPUT]  2 GHOST-Al   8.092960000000   6.069720000000  -2.023240000000 AA   15.293477937060  11.470108452795  -3.823369484265 Bohr
[INPUT]  3 GHOST-Al  10.116200000000   4.046480000000  -2.023240000000 AA   19.116847421325   7.646738968530  -3.823369484265 Bohr
[INPUT]  4 GHOST-Al   6.069720000000   4.046480000000  -2.023240000000 AA   11.470108452795   7.646738968530  -3.823369484265 Bohr
[INPUT]  5 GHOST-Al   8.092960000000   2.023240000000  -2.023240000000 AA   15.293477937060   3.823369484265  -3.823369484265 Bohr
[INPUT]  6 GHOST-Al   8.092960000000   4.046480000000  -4.046480000000 AA   15.293477937060   7.646738968530  -7.646738968530 Bohr
[INPUT]  7 Al     6.069720000000   6.069720000000  -0.000000000000 AA   11.470108452795  11.470108452795  -0.000000000000 Bohr
[INPUT]  8 Al    10.116200000000   2.023240000000  -0.000000000000 AA   19.116847421325   3.823369484265  -0.000000000000 Bohr
[INPUT]  9 Al    10.116200000000   6.069720000000  -4.046480000000 AA   19.116847421325  11.470108452795  -7.646738968530 Bohr
[INPUT] 10 Al     6.069720000000   2.023240000000  -0.000000000000 AA   11.470108452795   3.823369484265  -0.000000000000 Bohr
[INPUT] 11 Al     6.069720000000   6.069720000000  -4.046480000000 AA   11.470108452795  11.470108452795  -7.646738968530 Bohr
[INPUT] 12 Al    10.116200000000   2.023240000000  -4.046480000000 AA   19.116847421325   3.823369484265  -7.646738968530 Bohr

nuclear repulsion = 14.0938802665721
number of shells = 48
number of NR pGTOs = 192
number of NR cGTOs = 96
basis = stuttgartdz
ecp = stuttgartdz
CPU time:       345.19


******** <class 'pydmfet.dfet_ao.scf.EmbedSCF'> flags ********
method = EmbedSCF-RKS-RHF
initial guess = minao
damping factor = 0
level shift factor = 0
DIIS = <class 'pyscf.scf.diis.CDIIS'>
DIIS start cycle = 1
DIIS space = 8
SCF tol = 1e-09
SCF gradient tol = None
max. SCF cycles = 50
direct_scf = False
chkfile to save SCF result = /tmp/tmph25o12u4
max_memory 4000 MB (current use 564 MB)
XC functionals = pbe,pbe
small_rho_cutoff = 1e-07
radial grids: 
    Treutler-Ahlrichs (JCP 102, 346 (M4)) radial grids
    
becke partition: Becke, JCP, 88, 2547 (1988)
pruning grids: <function nwchem_prune at 0x2ad02cfbb400>
grids dens level: 3
symmetrized grids: False
atomic radii adjust function: <function treutler_atomic_radii_adjust at 0x2ad02cfbb378>
Set gradient conv threshold to 3.16228e-05
tot grids = 190200
init E= -9.26916291332329
HOMO: -0.24146260481217502 LUMO: -0.2387668009154223
mo_energy:
[-0.3675 -0.2681 -0.2658 -0.2656 -0.2595 -0.2593 -0.258  -0.2415 -0.2415
 -0.2388 -0.2381 -0.231  -0.2299 -0.2166]
e_fermi =  -0.24069248911131008
[2.    1.992 1.987 1.986 1.955 1.953 1.939 1.079 1.077 0.81  0.746 0.253
 0.207 0.016]
entropy correction =  -0.03940680822872199
cycle= 1 E= -12.9171868857071  delta_E= -3.65  |g|= 0.858  |ddm|= 4.91
HOMO: -0.49530095048444184 LUMO: -0.4462495601065505
mo_energy:
[-0.866 -0.673 -0.616 -0.616 -0.537 -0.527 -0.526 -0.496 -0.495 -0.446
 -0.442 -0.442 -0.43  -0.424]
e_fermi =  -0.4706353411261937
[2.    2.    2.    2.    2.    2.    2.    1.986 1.986 0.015 0.006 0.006]
entropy correction =  -0.0017330827385863637
cycle= 2 E= -12.8269499855788  delta_E= 0.0902  |g|= 1.08  |ddm|=  3.4
HOMO: -0.3817455455354704 LUMO: -0.3706698000751773
mo_energy:
[-0.586 -0.442 -0.416 -0.415 -0.407 -0.401 -0.401 -0.382 -0.382 -0.371
 -0.371 -0.37  -0.361 -0.333]
e_fermi =  -0.37759101633918035
[2.    2.    1.999 1.999 1.994 1.983 1.983 1.399 1.393 0.401 0.396 0.38
 0.072]
entropy correction =  -0.029928607050595843
cycle= 3 E= -13.3583240422749  delta_E= -0.531  |g|= 0.218  |ddm|= 1.82
HOMO: -0.37021724371951936 LUMO: -0.3699183287135891
mo_energy:
[-0.555 -0.405 -0.4   -0.4   -0.391 -0.389 -0.385 -0.371 -0.37  -0.37
 -0.365 -0.365 -0.357 -0.326]
e_fermi =  -0.3702293017396814
[2.    1.998 1.995 1.995 1.966 1.957 1.9   1.037 0.999 0.969 0.54  0.52
 0.125]
entropy correction =  -0.039013541852351036
cycle= 4 E= -13.3886384847892  delta_E= -0.0303  |g|= 0.0918  |ddm|= 0.791
HOMO: -0.36629836538227534 LUMO: -0.36489016249889616
mo_energy:
[-0.55  -0.406 -0.395 -0.393 -0.388 -0.386 -0.384 -0.367 -0.366 -0.365
 -0.362 -0.361 -0.351 -0.321]
e_fermi =  -0.36635940813691126
[2.    1.999 1.994 1.991 1.973 1.958 1.939 1.086 0.994 0.854 0.582 0.535
 0.096]
entropy correction =  -0.038082467422663864
cycle= 5 E= -13.3424743680577  delta_E= 0.0462  |g|= 0.277  |ddm|= 0.578
HOMO: -0.36537408857593034 LUMO: -0.3648966907040908
mo_energy:
[-0.549 -0.406 -0.393 -0.391 -0.387 -0.386 -0.384 -0.366 -0.365 -0.365
 -0.362 -0.361 -0.351 -0.32 ]
e_fermi =  -0.3658796239053435
[2.    1.999 1.992 1.988 1.97  1.962 1.947 1.002 0.949 0.902 0.614 0.573
 0.101]
entropy correction =  -0.038506791463170785
cycle= 6 E= -13.3953225431148  delta_E= -0.0528  |g|= 0.0462  |ddm|= 0.422
HOMO: -0.36610746150817275 LUMO: -0.3652954246680987
mo_energy:
[-0.549 -0.407 -0.393 -0.393 -0.387 -0.385 -0.384 -0.367 -0.366 -0.365
 -0.362 -0.362 -0.351 -0.321]
e_fermi =  -0.36637180514260237
[2.    1.999 1.991 1.99  1.971 1.956 1.946 1.048 0.974 0.893 0.581 0.556
 0.095]
entropy correction =  -0.03826796998430191
cycle= 7 E= -13.3932563989915  delta_E= 0.00207  |g|= 0.0691  |ddm|= 0.257
HOMO: -0.3674244469436144 LUMO: -0.36545482999414425
mo_energy:
[-0.55  -0.407 -0.394 -0.394 -0.387 -0.386 -0.385 -0.368 -0.367 -0.365
 -0.362 -0.362 -0.352 -0.322]
e_fermi =  -0.3670655846108261
[2.    1.999 1.991 1.991 1.965 1.957 1.942 1.064 1.036 0.84  0.57  0.553
 0.091]
entropy correction =  -0.03821913139931726
cycle= 8 E= -13.3946582848519  delta_E= -0.0014  |g|= 0.0604  |ddm|= 0.178
HOMO: -0.36747151200534683 LUMO: -0.36536222498889837
mo_energy:
[-0.549 -0.406 -0.394 -0.393 -0.387 -0.387 -0.384 -0.368 -0.367 -0.365
 -0.362 -0.362 -0.352 -0.322]
e_fermi =  -0.3670442870443901
[2.    1.999 1.992 1.99  1.962 1.96  1.941 1.051 1.043 0.833 0.572 0.566
 0.091]
entropy correction =  -0.03832663853034865
cycle= 9 E= -13.3970289929985  delta_E= -0.00237  |g|= 0.0206  |ddm|= 0.109
HOMO: -0.36684399766121417 LUMO: -0.36500027173502547
mo_energy:
[-0.548 -0.405 -0.394 -0.393 -0.386 -0.386 -0.384 -0.367 -0.367 -0.365
 -0.362 -0.362 -0.351 -0.321]
e_fermi =  -0.36654742063472995
[2.    1.999 1.991 1.989 1.961 1.961 1.939 1.037 1.03  0.847 0.58  0.575
 0.092]
entropy correction =  -0.0385142651102721
cycle= 10 E= -13.3969852657314  delta_E= 4.37e-05  |g|= 0.0233  |ddm|= 0.0574
HOMO: -0.3657961186869812 LUMO: -0.36457151894345957
mo_energy:
[-0.547 -0.404 -0.392 -0.391 -0.386 -0.385 -0.383 -0.366 -0.366 -0.365
 -0.362 -0.361 -0.351 -0.321]
e_fermi =  -0.3658275015573101
[2.    1.999 1.99  1.988 1.963 1.962 1.937 1.006 0.997 0.875 0.598 0.589
 0.096]
entropy correction =  -0.0387926548030225
cycle= 11 E= -13.3973738000629  delta_E= -0.000389  |g|= 0.00319  |ddm|= 0.0535
HOMO: -0.3655724617175757 LUMO: -0.36441727277284547
mo_energy:
[-0.547 -0.404 -0.392 -0.391 -0.386 -0.385 -0.383 -0.366 -0.366 -0.364
 -0.361 -0.361 -0.351 -0.321]
e_fermi =  -0.3656717175185515
[2.    1.999 1.99  1.988 1.963 1.962 1.938 1.009 0.99  0.875 0.598 0.592
 0.096]
entropy correction =  -0.03879963159196003
cycle= 12 E= -13.3973204912535  delta_E= 5.33e-05  |g|= 0.00695  |ddm|= 0.0308
HOMO: -0.3658402798694136 LUMO: -0.36452041344475505
mo_energy:
[-0.547 -0.404 -0.392 -0.391 -0.386 -0.385 -0.383 -0.366 -0.366 -0.365
 -0.362 -0.361 -0.351 -0.321]
e_fermi =  -0.36581995518261085
[2.    1.999 1.99  1.988 1.963 1.962 1.938 1.007 1.002 0.871 0.597 0.588
 0.095]
entropy correction =  -0.03875502525429232
cycle= 13 E= -13.3973816326344  delta_E= -6.11e-05  |g|= 0.00199  |ddm|= 0.0249
HOMO: -0.3658652519055869 LUMO: -0.36452395000591115
mo_energy:
[-0.547 -0.404 -0.392 -0.391 -0.386 -0.385 -0.383 -0.366 -0.366 -0.365
 -0.362 -0.361 -0.351 -0.321]
e_fermi =  -0.36582400508167723
[2.    1.999 1.99  1.988 1.963 1.962 1.938 1.005 1.004 0.871 0.596 0.588
 0.095]
entropy correction =  -0.038755286497036495
cycle= 14 E= -13.3973857797278  delta_E= -4.15e-06  |g|= 0.000364  |ddm|= 0.00579
HOMO: -0.3658571469837434 LUMO: -0.3645225177648666
mo_energy:
[-0.547 -0.404 -0.392 -0.391 -0.386 -0.385 -0.383 -0.366 -0.366 -0.365
 -0.362 -0.361 -0.351 -0.321]
e_fermi =  -0.3658212607642684
[2.    1.999 1.99  1.988 1.963 1.962 1.938 1.005 1.004 0.871 0.596 0.588
 0.095]
entropy correction =  -0.03875509090063404
cycle= 15 E= -13.3973816958219  delta_E= 4.08e-06  |g|= 0.00243  |ddm|= 0.00408
HOMO: -0.36586463753894294 LUMO: -0.36453029245693025
mo_energy:
[-0.547 -0.404 -0.392 -0.391 -0.386 -0.385 -0.383 -0.366 -0.366 -0.365
 -0.362 -0.361 -0.351 -0.321]
e_fermi =  -0.365828173516868
[2.    1.999 1.99  1.988 1.963 1.962 1.938 1.005 1.004 0.871 0.596 0.588
 0.095]
entropy correction =  -0.03875715973730077
cycle= 16 E= -13.3973856274853  delta_E= -3.93e-06  |g|= 0.000526  |ddm|= 0.00363
HOMO: -0.36587396327729726 LUMO: -0.3645350150948798
mo_energy:
[-0.547 -0.404 -0.392 -0.391 -0.386 -0.386 -0.383 -0.366 -0.366 -0.365
 -0.362 -0.361 -0.351 -0.321]
e_fermi =  -0.3658332151209352
[2.    1.999 1.99  1.988 1.963 1.962 1.938 1.005 1.004 0.871 0.596 0.588
 0.095]
entropy correction =  -0.03875750634381429
cycle= 17 E= -13.3973857542169  delta_E= -1.27e-07  |g|= 0.000398  |ddm|= 0.00177
HOMO: -0.3658771582647956 LUMO: -0.36453688500431475
mo_energy:
[-0.547 -0.404 -0.392 -0.391 -0.386 -0.386 -0.383 -0.366 -0.366 -0.365
 -0.362 -0.361 -0.351 -0.321]
e_fermi =  -0.3658361589835159
[2.    1.999 1.99  1.988 1.963 1.962 1.938 1.005 1.004 0.871 0.596 0.588
 0.095]
entropy correction =  -0.0387559665491041
cycle= 18 E= -13.3973858685463  delta_E= -1.14e-07  |g|= 0.000136  |ddm|= 0.000955
HOMO: -0.3658727884294808 LUMO: -0.3645336903851284
mo_energy:
[-0.547 -0.404 -0.392 -0.391 -0.386 -0.385 -0.383 -0.366 -0.366 -0.365
 -0.362 -0.361 -0.351 -0.321]
e_fermi =  -0.36583256192431635
[2.    1.999 1.99  1.988 1.963 1.962 1.938 1.005 1.004 0.871 0.596 0.588
 0.095]
entropy correction =  -0.03875658393803904
cycle= 19 E= -13.3973857979022  delta_E= 7.06e-08  |g|= 0.000351  |ddm|= 0.000694
HOMO: -0.3658700172291724 LUMO: -0.36453188547156357
mo_energy:
[-0.547 -0.404 -0.392 -0.391 -0.386 -0.385 -0.383 -0.366 -0.366 -0.365
 -0.362 -0.361 -0.351 -0.321]
e_fermi =  -0.36583052461142657
[2.    1.999 1.99  1.988 1.963 1.962 1.938 1.005 1.004 0.871 0.596 0.588
 0.095]
entropy correction =  -0.038756894036241094
cycle= 20 E= -13.3973858825154  delta_E= -8.46e-08  |g|= 3.25e-05  |ddm|= 0.000559
HOMO: -0.3658714938888342 LUMO: -0.3645325479378087
mo_energy:
[-0.547 -0.404 -0.392 -0.391 -0.386 -0.385 -0.383 -0.366 -0.366 -0.365
 -0.362 -0.361 -0.351 -0.321]
e_fermi =  -0.3658315152006935
[2.    1.999 1.99  1.988 1.963 1.962 1.938 1.005 1.004 0.871 0.596 0.588
 0.095]
entropy correction =  -0.038756423522172095
cycle= 21 E= -13.3973858829177  delta_E= -4.02e-10  |g|= 1.91e-05  |ddm|= 0.000123
HOMO: -0.36587154263221894 LUMO: -0.3645327410988196
mo_energy:
[-0.547 -0.404 -0.392 -0.391 -0.386 -0.385 -0.383 -0.366 -0.366 -0.365
 -0.362 -0.361 -0.351 -0.321]
e_fermi =  -0.36583185203307883
[2.    1.999 1.99  1.988 1.963 1.962 1.938 1.005 1.004 0.871 0.596 0.588
 0.095]
entropy correction =  -0.038756291737524935
Extra cycle  E= -13.3973858760533  delta_E= 6.86e-09  |g|= 7.61e-05  |ddm|= 0.000302
converged SCF energy = -13.3973858760533


******** <class 'pydmfet.dfet_ao.scf.EmbedSCF'> flags ********
method = EmbedSCF-RKS-RHF
initial guess = minao
damping factor = 0
level shift factor = 0
DIIS = <class 'pyscf.scf.diis.CDIIS'>
DIIS start cycle = 1
DIIS space = 8
SCF tol = 1e-09
SCF gradient tol = None
max. SCF cycles = 50
direct_scf = False
chkfile to save SCF result = /tmp/tmpzlnzs5kv
max_memory 4000 MB (current use 4632 MB)
XC functionals = pbe,pbe
small_rho_cutoff = 1e-07
radial grids: 
    Treutler-Ahlrichs (JCP 102, 346 (M4)) radial grids
    
becke partition: Becke, JCP, 88, 2547 (1988)
pruning grids: <function nwchem_prune at 0x2ad02cfbb400>
grids dens level: 3
symmetrized grids: False
atomic radii adjust function: <function treutler_atomic_radii_adjust at 0x2ad02cfbb378>
Set gradient conv threshold to 3.16228e-05
tot grids = 190200
init E= -9.12492454149725
HOMO: -0.18143266829107788 LUMO: -0.17066104260190276
mo_energy:
[-0.295 -0.295 -0.264 -0.238 -0.19  -0.187 -0.187 -0.181 -0.181 -0.171
 -0.167 -0.157 -0.157 -0.149]
e_fermi =  -0.17437992543905645
[2.    2.    2.    2.    1.917 1.853 1.852 1.612 1.608 0.644 0.368 0.062
 0.061 0.012 0.012]
entropy correction =  -0.031425517782286534
cycle= 1 E= -12.4354251077984  delta_E= -3.31  |g|= 0.772  |ddm|= 5.23
HOMO: -0.1328768522518822 LUMO: -0.1298099417945464
mo_energy:
[-0.352 -0.352 -0.312 -0.262 -0.239 -0.239 -0.152 -0.133 -0.133 -0.13
 -0.111 -0.11  -0.11  -0.103]
e_fermi =  -0.12893142869069227
[2.000e+00 2.000e+00 2.000e+00 2.000e+00 2.000e+00 2.000e+00 1.981e+00
 1.393e+00 1.375e+00 1.088e+00 5.094e-02 4.662e-02 4.175e-02 1.114e-02
 1.014e-02 1.009e-03]
entropy correction =  -0.02384733381225798
cycle= 2 E= -12.3588118987739  delta_E= 0.0766  |g|= 0.985  |ddm|=  2.9
HOMO: -0.21732917616386138 LUMO: -0.20905772392864258
mo_energy:
[-0.375 -0.375 -0.342 -0.296 -0.24  -0.24  -0.235 -0.217 -0.217 -0.209
 -0.207 -0.207 -0.199 -0.19 ]
e_fermi =  -0.21416897889557113
[2.    2.    2.    2.    1.989 1.988 1.967 1.313 1.306 0.529 0.391 0.387
 0.096 0.017 0.016]
entropy correction =  -0.032999235751409346
cycle= 3 E= -12.7445212054943  delta_E= -0.386  |g|= 0.228  |ddm|= 1.38
HOMO: -0.2179982824816929 LUMO: -0.21321585388544817
mo_energy:
[-0.365 -0.364 -0.333 -0.29  -0.232 -0.228 -0.227 -0.218 -0.218 -0.213
 -0.213 -0.208 -0.2   -0.192]
e_fermi =  -0.2157321654749371
[2.    2.    2.    2.    1.931 1.836 1.801 1.226 1.223 0.754 0.745 0.362
 0.09  0.016 0.016]
entropy correction =  -0.04170298158545709
cycle= 4 E= -12.767808726022  delta_E= -0.0233  |g|= 0.0859  |ddm|= 0.545
HOMO: -0.21811416994617372 LUMO: -0.21346463075646127
mo_energy:
[-0.364 -0.364 -0.332 -0.29  -0.233 -0.227 -0.226 -0.218 -0.218 -0.213
 -0.213 -0.209 -0.2   -0.191]
e_fermi =  -0.21577708855421435
[2.    2.    2.    2.    1.936 1.814 1.79  1.242 1.23  0.773 0.716 0.381
 0.087 0.015 0.015]
entropy correction =  -0.041938204451734296
cycle= 5 E= -12.7547028227384  delta_E= 0.0131  |g|= 0.158  |ddm|= 0.359
HOMO: -0.21775949638541042 LUMO: -0.21313343972362128
mo_energy:
[-0.364 -0.363 -0.332 -0.29  -0.232 -0.227 -0.226 -0.218 -0.218 -0.213
 -0.213 -0.208 -0.2   -0.192]
e_fermi =  -0.21553681380710502
[2.    2.    2.    2.    1.934 1.828 1.787 1.228 1.219 0.764 0.736 0.386
 0.084 0.017 0.016]
entropy correction =  -0.0419803323320775
cycle= 6 E= -12.7732928431805  delta_E= -0.0186  |g|= 0.0254  |ddm|= 0.248
HOMO: -0.21767272563681728 LUMO: -0.21292067029399184
mo_energy:
[-0.364 -0.363 -0.331 -0.289 -0.232 -0.227 -0.225 -0.218 -0.218 -0.213
 -0.213 -0.208 -0.2   -0.192]
e_fermi =  -0.21531714023144896
[2.    2.    2.    2.    1.933 1.838 1.768 1.235 1.231 0.765 0.732 0.38
 0.083 0.017 0.016]
entropy correction =  -0.041982681443986584
cycle= 7 E= -12.7725529554317  delta_E= 0.00074  |g|= 0.0413  |ddm|= 0.146
HOMO: -0.21763633963349158 LUMO: -0.21272978302425616
mo_energy:
[-0.363 -0.363 -0.331 -0.289 -0.232 -0.227 -0.226 -0.218 -0.218 -0.213
 -0.213 -0.208 -0.2   -0.191]
e_fermi =  -0.21528763207284307
[2.    2.    2.    2.    1.932 1.808 1.801 1.237 1.231 0.75  0.745 0.378
 0.084 0.017 0.016]
entropy correction =  -0.04199073373625451
cycle= 8 E= -12.7738949162943  delta_E= -0.00134  |g|= 0.00595  |ddm|= 0.102
HOMO: -0.21780791390124352 LUMO: -0.21296362846519618
mo_energy:
[-0.364 -0.363 -0.331 -0.289 -0.232 -0.227 -0.226 -0.218 -0.218 -0.213
 -0.213 -0.208 -0.2   -0.192]
e_fermi =  -0.21546501699784965
[2.    2.    2.    2.    1.932 1.809 1.798 1.236 1.23  0.755 0.746 0.377
 0.084 0.017 0.016]
entropy correction =  -0.04201946048515149
cycle= 9 E= -12.7738748125296  delta_E= 2.01e-05  |g|= 0.00801  |ddm|= 0.0201
HOMO: -0.2178686939103634 LUMO: -0.21301301798250652
mo_energy:
[-0.364 -0.363 -0.331 -0.29  -0.232 -0.227 -0.227 -0.218 -0.218 -0.213
 -0.213 -0.208 -0.2   -0.192]
e_fermi =  -0.215524748747209
[2.    2.    2.    2.    1.932 1.804 1.801 1.235 1.23  0.754 0.75  0.376
 0.083 0.017 0.016]
entropy correction =  -0.042041764508845676
cycle= 10 E= -12.7739201231922  delta_E= -4.53e-05  |g|= 0.00216  |ddm|= 0.0158
HOMO: -0.21786242699506342 LUMO: -0.21299926734059596
mo_energy:
[-0.363 -0.363 -0.331 -0.29  -0.232 -0.227 -0.227 -0.218 -0.218 -0.213
 -0.213 -0.208 -0.2   -0.192]
e_fermi =  -0.21551972949924703
[2.    2.    2.    2.    1.932 1.803 1.802 1.235 1.23  0.753 0.751 0.376
 0.083 0.017 0.016]
entropy correction =  -0.04204297202369252
cycle= 11 E= -12.7739222814339  delta_E= -2.16e-06  |g|= 0.00144  |ddm|= 0.00516
HOMO: -0.2178348327225858 LUMO: -0.21296453538674667
mo_energy:
[-0.363 -0.363 -0.331 -0.289 -0.232 -0.227 -0.227 -0.218 -0.218 -0.213
 -0.213 -0.208 -0.2   -0.192]
e_fermi =  -0.21549429326600072
[2.    2.    2.    2.    1.932 1.804 1.802 1.235 1.23  0.752 0.751 0.376
 0.083 0.017 0.016]
entropy correction =  -0.042037251568141254
cycle= 12 E= -12.773923361991  delta_E= -1.08e-06  |g|= 0.000676  |ddm|= 0.00372
HOMO: -0.2178241435075706 LUMO: -0.21295154126566462
mo_energy:
[-0.363 -0.363 -0.331 -0.289 -0.232 -0.227 -0.227 -0.218 -0.218 -0.213
 -0.213 -0.208 -0.2   -0.192]
e_fermi =  -0.21548140870032373
[2.    2.    2.    2.    1.932 1.804 1.802 1.235 1.23  0.752 0.751 0.376
 0.083 0.017 0.016]
entropy correction =  -0.04202884543128664
cycle= 13 E= -12.7739238174447  delta_E= -4.55e-07  |g|= 8.35e-05  |ddm|= 0.00196
HOMO: -0.21782543946132682 LUMO: -0.21295317181983414
mo_energy:
[-0.363 -0.363 -0.331 -0.289 -0.232 -0.227 -0.227 -0.218 -0.218 -0.213
 -0.213 -0.208 -0.2   -0.192]
e_fermi =  -0.2154824519777067
[2.    2.    2.    2.    1.932 1.804 1.802 1.235 1.23  0.752 0.751 0.376
 0.083 0.017 0.016]
entropy correction =  -0.04203043849529994
cycle= 14 E= -12.773923815458  delta_E= 1.99e-09  |g|= 0.000101  |ddm|= 0.000383
HOMO: -0.2178248065332213 LUMO: -0.21295191791026374
mo_energy:
[-0.363 -0.363 -0.331 -0.289 -0.232 -0.227 -0.227 -0.218 -0.218 -0.213
 -0.213 -0.208 -0.2   -0.192]
e_fermi =  -0.21548183383067512
[2.    2.    2.    2.    1.932 1.804 1.802 1.235 1.23  0.752 0.751 0.376
 0.083 0.017 0.016]
entropy correction =  -0.0420302619598592
cycle= 15 E= -12.7739238154736  delta_E= -1.56e-11  |g|= 9.97e-05  |ddm|= 0.000383
HOMO: -0.21782471209337625 LUMO: -0.21295200946125928
mo_energy:
[-0.363 -0.363 -0.331 -0.289 -0.232 -0.227 -0.227 -0.218 -0.218 -0.213
 -0.213 -0.208 -0.2   -0.192]
e_fermi =  -0.21548163449870522
[2.    2.    2.    2.    1.932 1.804 1.802 1.235 1.23  0.752 0.751 0.376
 0.083 0.017 0.016]
entropy correction =  -0.04203010123204685
cycle= 16 E= -12.7739238234024  delta_E= -7.93e-09  |g|= 1.56e-05  |ddm|= 0.000236
HOMO: -0.21782589105869665 LUMO: -0.21295333778543057
mo_energy:
[-0.363 -0.363 -0.331 -0.289 -0.232 -0.227 -0.227 -0.218 -0.218 -0.213
 -0.213 -0.208 -0.2   -0.192]
e_fermi =  -0.21548278580686278
[2.    2.    2.    2.    1.932 1.804 1.802 1.235 1.23  0.752 0.751 0.376
 0.083 0.017 0.016]
entropy correction =  -0.0420304342605384
cycle= 17 E= -12.7739238220072  delta_E= 1.4e-09  |g|= 4.53e-05  |ddm|= 0.000125
HOMO: -0.21782540903780395 LUMO: -0.21295296346020742
mo_energy:
[-0.363 -0.363 -0.331 -0.289 -0.232 -0.227 -0.227 -0.218 -0.218 -0.213
 -0.213 -0.208 -0.2   -0.192]
e_fermi =  -0.21548239373991115
[2.    2.    2.    2.    1.932 1.804 1.802 1.235 1.23  0.752 0.751 0.376
 0.083 0.017 0.016]
entropy correction =  -0.04203019585935456
cycle= 18 E= -12.7739238233483  delta_E= -1.34e-09  |g|= 1.77e-05  |ddm|= 0.00012
HOMO: -0.21782556733428493 LUMO: -0.2129530562053517
mo_energy:
[-0.363 -0.363 -0.331 -0.289 -0.232 -0.227 -0.227 -0.218 -0.218 -0.213
 -0.213 -0.208 -0.2   -0.192]
e_fermi =  -0.21548253405494486
[2.    2.    2.    2.    1.932 1.804 1.802 1.235 1.23  0.752 0.751 0.376
 0.083 0.017 0.016]
entropy correction =  -0.04203024808554447
cycle= 19 E= -12.7739238234283  delta_E= -8e-11  |g|= 1.46e-05  |ddm|= 5.39e-05
HOMO: -0.21782451710069978 LUMO: -0.212951812716247
mo_energy:
[-0.363 -0.363 -0.331 -0.289 -0.232 -0.227 -0.227 -0.218 -0.218 -0.213
 -0.213 -0.208 -0.2   -0.192]
e_fermi =  -0.215481527228153
[2.    2.    2.    2.    1.932 1.804 1.802 1.235 1.23  0.752 0.751 0.376
 0.083 0.017 0.016]
entropy correction =  -0.042029716716434726
Extra cycle  E= -12.7739238123673  delta_E= 1.11e-08  |g|= 0.000122  |ddm|= 0.00022
converged SCF energy = -12.7739238123673
|umat| =  2.744949724516107
rks_ao.ne_frozen =  0
Set gradient conv threshold to 3.16228e-05
Initial guess from hcore.
HOMO:  -3.5054785861911673 LUMO:  -3.3119481821749956
Fermi energy:      -3.4069666987
[2. 2. 2. 2. 2. 2. 2. 2. 2.]
tot grids = 190200
init E= -10.1134713004031
HOMO:  -0.06762119329086816 LUMO:  -0.0672773303909443
Fermi energy:      -0.0719123312
[2.     2.     2.     2.     2.     2.     1.9951 1.9444 0.5954 0.5671
 0.4592 0.4388]
entropy correction =  -0.02414230762484775
cycle= 1 E= -10.2048903657793  delta_E= -0.0914  |g|= 2.75  |ddm|= 7.88
HOMO:  -0.7796734044515616 LUMO:  -0.6501149928001833
Fermi energy:      -0.7135580675
[2. 2. 2. 2. 2. 2. 2. 2. 2.]
entropy correction =  -1.0134341302808514e-06
cycle= 2 E= -11.5279929267904  delta_E= -1.32  |g|= 2.03  |ddm|= 6.48
HOMO:  -0.45067855940543766 LUMO:  -0.4177555705303403
Fermi energy:      -0.4348883251
[2.0000e+00 2.0000e+00 2.0000e+00 2.0000e+00 1.9997e+00 1.9971e+00
 1.9970e+00 1.9188e+00 1.9184e+00 6.2952e-02 6.2049e-02 2.6368e-02
 1.6967e-02 6.8354e-04]
entropy correction =  -0.007644932053899076
cycle= 3 E= -13.2283900741123  delta_E= -1.7  |g|= 0.546  |ddm|= 3.81
HOMO:  -0.36573341245675095 LUMO:  -0.36515961779871914
Fermi energy:      -0.3679998556
[2.0000e+00 1.9990e+00 1.9961e+00 1.9953e+00 1.9775e+00 1.9758e+00
 1.8859e+00 1.2596e+00 7.7716e-01 7.2337e-01 6.0721e-01 5.6287e-01
 2.4006e-01 2.0553e-04]
entropy correction =  -0.039388321230816425
cycle= 4 E= -13.3653369552739  delta_E= -0.137  |g|= 0.195  |ddm|= 1.67
HOMO:  -0.3688822797589432 LUMO:  -0.36284835803386584
Fermi energy:      -0.3677032958
[2.0000e+00 1.9999e+00 1.9988e+00 1.9985e+00 1.9843e+00 1.9790e+00
 1.9493e+00 1.4399e+00 1.1174e+00 5.4937e-01 4.6949e-01 4.4030e-01
 7.3542e-02 1.6937e-04]
entropy correction =  -0.0333151160697068
cycle= 5 E= -12.9972875735066  delta_E= 0.368  |g|= 0.757  |ddm|=  1.4
HOMO:  -0.37322878452068586 LUMO:  -0.36872920552161376
Fermi energy:      -0.3716310113
[2.0000e+00 1.9998e+00 1.9971e+00 1.9952e+00 1.9729e+00 1.9669e+00
 1.9622e+00 1.1750e+00 1.1584e+00 7.1770e-01 4.9122e-01 4.7499e-01
 8.8313e-02 2.1298e-04]
entropy correction =  -0.03577116251123466
cycle= 6 E= -13.3828008526096  delta_E= -0.386  |g|= 0.137  |ddm|= 1.05
HOMO:  -0.3717083078964772 LUMO:  -0.3704606265587115
Fermi energy:      -0.3710234994
[2.0000e+00 1.9994e+00 1.9963e+00 1.9885e+00 1.9763e+00 1.9476e+00
 1.9294e+00 1.2211e+00 1.0684e+00 9.4377e-01 5.5212e-01 3.0755e-01
 6.9244e-02 2.3356e-04]
entropy correction =  -0.036105643675703576
cycle= 7 E= -13.3716059565145  delta_E= 0.0112  |g|= 0.156  |ddm|= 0.561
HOMO:  -0.37014494014256466 LUMO:  -0.3674493873660182
Fermi energy:      -0.3695628686
[2.0000e+00 1.9992e+00 1.9925e+00 1.9908e+00 1.9618e+00 1.9551e+00
 1.9365e+00 1.1632e+00 1.0581e+00 7.9174e-01 5.4029e-01 5.2714e-01
 8.3322e-02 2.4958e-04]
entropy correction =  -0.03777484686425416
cycle= 8 E= -13.3934611482253  delta_E= -0.0219  |g|= 0.0711  |ddm|= 0.479
HOMO:  -0.3681462669679217 LUMO:  -0.3660541701563159
Fermi energy:      -0.3677182559
[2.0000e+00 1.9991e+00 1.9917e+00 1.9886e+00 1.9645e+00 1.9555e+00
 1.9371e+00 1.0842e+00 1.0428e+00 8.3511e-01 5.6251e-01 5.5176e-01
 8.6901e-02 2.4406e-04]
entropy correction =  -0.03825963694131282
cycle= 9 E= -13.3882024559949  delta_E= 0.00526  |g|= 0.113  |ddm|= 0.27
HOMO:  -0.36458710308880843 LUMO:  -0.36400232123446274
Fermi energy:      -0.3651566948
[2.0000e+00 1.9990e+00 1.9893e+00 1.9851e+00 1.9644e+00 1.9628e+00
 1.9355e+00 1.0305e+00 9.4310e-01 8.8507e-01 6.2184e-01 5.8866e-01
 9.4461e-02 2.3731e-04]
entropy correction =  -0.03893728699300047
cycle= 10 E= -13.3950315237608  delta_E= -0.00683  |g|= 0.0549  |ddm|= 0.239
HOMO:  -0.36429175960718263 LUMO:  -0.36385648491863176
Fermi energy:      -0.3647850945
[2.0000e+00 1.9990e+00 1.9889e+00 1.9867e+00 1.9649e+00 1.9619e+00
 1.9369e+00 9.9563e-01 9.5071e-01 9.0741e-01 6.1639e-01 5.9303e-01
 9.8314e-02 2.3523e-04]
entropy correction =  -0.038980487454787015
cycle= 11 E= -13.3954521894208  delta_E= -0.000421  |g|= 0.0535  |ddm|= 0.161
HOMO:  -0.36458269847981434 LUMO:  -0.3637999618171988
Fermi energy:      -0.3649179263
[2.0000e+00 1.9991e+00 1.9893e+00 1.9872e+00 1.9643e+00 1.9626e+00
 1.9389e+00 9.9666e-01 9.6649e-01 8.8867e-01 6.0738e-01 6.0184e-01
 9.7379e-02 2.3771e-04]
entropy correction =  -0.038893408479127756
cycle= 12 E= -13.3972735705328  delta_E= -0.00182  |g|= 0.0149  |ddm|= 0.118
HOMO:  -0.36586558672697406 LUMO:  -0.3645210390184061
Fermi energy:      -0.3658132464
[2.0000e+00 1.9991e+00 1.9903e+00 1.9883e+00 1.9626e+00 1.9615e+00
 1.9373e+00 1.0093e+00 1.0052e+00 8.7149e-01 5.9334e-01 5.8555e-01
 9.5762e-02 2.4233e-04]
entropy correction =  -0.038753717883007126
cycle= 13 E= -13.3974934711077  delta_E= -0.00022  |g|= 0.00236  |ddm|= 0.0472
HOMO:  -0.3659207272846995 LUMO:  -0.36456668825992466
Fermi energy:      -0.3658757384
[2.0000e+00 1.9991e+00 1.9901e+00 1.9883e+00 1.9634e+00 1.9610e+00
 1.9379e+00 1.0097e+00 1.0045e+00 8.6984e-01 5.9499e-01 5.8567e-01
 9.5394e-02 2.4152e-04]
entropy correction =  -0.038742166222369354
cycle= 14 E= -13.3974853319875  delta_E= 8.14e-06  |g|= 0.00355  |ddm|= 0.0146
HOMO:  -0.36594677138703335 LUMO:  -0.36457263982195953
Fermi energy:      -0.3658908838
[2.0000e+00 1.9991e+00 1.9902e+00 1.9882e+00 1.9628e+00 1.9617e+00
 1.9382e+00 1.0081e+00 1.0056e+00 8.6893e-01 5.9452e-01 5.8709e-01
 9.5277e-02 2.4098e-04]
entropy correction =  -0.03873489235332598
cycle= 15 E= -13.3974968049617  delta_E= -1.15e-05  |g|= 0.00133  |ddm|= 0.0122
HOMO:  -0.3659641954458556 LUMO:  -0.36459191262
Fermi energy:      -0.3659021979
[2.0000e+00 1.9991e+00 1.9902e+00 1.9882e+00 1.9629e+00 1.9615e+00
 1.9378e+00 1.0077e+00 1.0062e+00 8.6972e-01 5.9463e-01 5.8667e-01
 9.5370e-02 2.4166e-04]
entropy correction =  -0.03874873307530917
cycle= 16 E= -13.3974987496486  delta_E= -1.94e-06  |g|= 0.000425  |ddm|= 0.00426
HOMO:  -0.36595810136190104 LUMO:  -0.3645898949391732
Fermi energy:      -0.3658957117
[2.0000e+00 1.9991e+00 1.9902e+00 1.9881e+00 1.9629e+00 1.9614e+00
 1.9376e+00 1.0071e+00 1.0062e+00 8.7016e-01 5.9419e-01 5.8737e-01
 9.5414e-02 2.4182e-04]
entropy correction =  -0.038754915696895126
cycle= 17 E= -13.397497040093  delta_E= 1.71e-06  |g|= 0.00139  |ddm|= 0.00414
HOMO:  -0.365955804652531 LUMO:  -0.3645871266182304
Fermi energy:      -0.3658945387
[2.0000e+00 1.9991e+00 1.9901e+00 1.9882e+00 1.9629e+00 1.9615e+00
 1.9377e+00 1.0072e+00 1.0061e+00 8.7000e-01 5.9467e-01 5.8684e-01
 9.5408e-02 2.4166e-04]
entropy correction =  -0.038751192571035105
cycle= 18 E= -13.3974985848337  delta_E= -1.54e-06  |g|= 0.000619  |ddm|= 0.00406
HOMO:  -0.3659367353001217 LUMO:  -0.3645779479074097
Fermi energy:      -0.3658826678
[2.0000e+00 1.9991e+00 1.9901e+00 1.9881e+00 1.9629e+00 1.9615e+00
 1.9377e+00 1.0072e+00 1.0054e+00 8.7026e-01 5.9491e-01 5.8706e-01
 9.5430e-02 2.4167e-04]
entropy correction =  -0.03875483124759023
cycle= 19 E= -13.3974987980803  delta_E= -2.13e-07  |g|= 0.000347  |ddm|= 0.00168
HOMO:  -0.3659327001333333 LUMO:  -0.3645742537318373
Fermi energy:      -0.3658778632
[2.0000e+00 1.9991e+00 1.9901e+00 1.9881e+00 1.9629e+00 1.9615e+00
 1.9377e+00 1.0069e+00 1.0055e+00 8.7037e-01 5.9497e-01 5.8714e-01
 9.5443e-02 2.4166e-04]
entropy correction =  -0.038755809198765846
cycle= 20 E= -13.3974983434459  delta_E= 4.55e-07  |g|= 0.000891  |ddm|= 0.00176
HOMO:  -0.365942738564255 LUMO:  -0.364578219959542
Fermi energy:      -0.3658830197
[2.0000e+00 1.9991e+00 1.9901e+00 1.9882e+00 1.9629e+00 1.9615e+00
 1.9377e+00 1.0067e+00 1.0060e+00 8.7026e-01 5.9473e-01 5.8713e-01
 9.5438e-02 2.4163e-04]
entropy correction =  -0.03875374330909231
cycle= 21 E= -13.3974988406663  delta_E= -4.97e-07  |g|= 0.000296  |ddm|= 0.00156
HOMO:  -0.3659422038839347 LUMO:  -0.3645794037911959
Fermi energy:      -0.3658841802
[2.0000e+00 1.9991e+00 1.9901e+00 1.9882e+00 1.9629e+00 1.9615e+00
 1.9377e+00 1.0070e+00 1.0058e+00 8.7026e-01 5.9476e-01 5.8706e-01
 9.5439e-02 2.4165e-04]
entropy correction =  -0.03875389212224009
cycle= 22 E= -13.3974989062779  delta_E= -6.56e-08  |g|= 4.14e-05  |ddm|= 0.000613
HOMO:  -0.3659447957971468 LUMO:  -0.3645811066161181
Fermi energy:      -0.3658863428
[2.0000e+00 1.9991e+00 1.9901e+00 1.9882e+00 1.9629e+00 1.9615e+00
 1.9377e+00 1.0071e+00 1.0058e+00 8.7021e-01 5.9473e-01 5.8701e-01
 9.5434e-02 2.4166e-04]
entropy correction =  -0.03875342686199726
cycle= 23 E= -13.3974989067443  delta_E= -4.66e-10  |g|= 3.27e-05  |ddm|= 0.000131
HOMO:  -0.36594516830900536 LUMO:  -0.3645810878057075
Fermi energy:      -0.3658864767
[2.0000e+00 1.9991e+00 1.9901e+00 1.9882e+00 1.9629e+00 1.9615e+00
 1.9377e+00 1.0070e+00 1.0059e+00 8.7020e-01 5.9473e-01 5.8701e-01
 9.5432e-02 2.4165e-04]
entropy correction =  -0.03875325677076778
cycle= 24 E= -13.3974989075787  delta_E= -8.34e-10  |g|= 1.22e-05  |ddm|= 9.33e-05
HOMO:  -0.36594725070446743 LUMO:  -0.3645823624278626
Fermi energy:      -0.3658882527
[2.0000e+00 1.9991e+00 1.9902e+00 1.9882e+00 1.9629e+00 1.9615e+00
 1.9377e+00 1.0071e+00 1.0059e+00 8.7015e-01 5.9472e-01 5.8696e-01
 9.5427e-02 2.4165e-04]
entropy correction =  -0.03875281812467253
Extra cycle  E= -13.3974989014077  delta_E= 6.17e-09  |g|= 8.83e-05  |ddm|= 0.000204
entropy correction =  -0.03875281812467253
rks_ao.ne_frozen =  0
Set gradient conv threshold to 3.16228e-05
Initial guess from hcore.
HOMO:  -2.57018963618162 LUMO:  -2.5698120705856686
Fermi energy:      -2.5706451239
[2.0000e+00 2.0000e+00 2.0000e+00 2.0000e+00 2.0000e+00 2.0000e+00
 2.0000e+00 1.9959e+00 9.5448e-01 9.1689e-01 6.2935e-02 6.0348e-02
 4.5707e-03 4.1537e-03 7.6155e-04]
tot grids = 190200
init E= -9.69435773919326
HOMO:  0.020085046068236963 LUMO:  0.022866404185727024
Fermi energy:       0.0199444569
[2.     2.     2.     2.     2.     2.     1.9952 1.3617 0.9859 0.7158
 0.4212 0.2229 0.1131 0.088  0.0455 0.0369 0.0083 0.0029 0.0025]
entropy correction =  -0.03498642400192162
cycle= 1 E= -10.9816597483593  delta_E= -1.29  |g|= 2.09  |ddm|= 9.52
HOMO:  -0.450313218943454 LUMO:  -0.4398157394829024
Fermi energy:      -0.4449549251
[2.     2.     2.     2.     2.     2.     1.9994 1.5667 1.4898 0.527
 0.2017 0.1792 0.034  0.002 ]
entropy correction =  -0.023936799924396904
cycle= 2 E= -11.0732670644758  delta_E= -0.0916  |g|= 2.12  |ddm|= 9.34
HOMO:  -0.29682429552760375 LUMO:  -0.28316740953870206
Fermi energy:      -0.2887383655
[2.     2.     2.     2.     1.9966 1.9849 1.9764 1.6969 1.6688 0.4942
 0.0703 0.0572 0.0481 0.0034 0.0031]
entropy correction =  -0.01974559576283178
cycle= 3 E= -12.2904585463119  delta_E= -1.22  |g|= 0.886  |ddm|= 1.83
HOMO:  -0.25959378142380674 LUMO:  -0.25658363815494545
Fermi energy:      -0.2580312954
[2.0000e+00 2.0000e+00 2.0000e+00 2.0000e+00 1.9992e+00 1.9527e+00
 1.9071e+00 1.7540e+00 1.1550e+00 8.5624e-01 1.5559e-01 1.3972e-01
 7.7397e-02 1.8592e-03 9.9823e-04 1.5739e-04]
entropy correction =  -0.027430872445997633
cycle= 4 E= -11.482150335183  delta_E= 0.808  |g|= 1.32  |ddm|= 2.14
HOMO:  -0.23799580154309144 LUMO:  -0.2319404982951485
Fermi energy:      -0.2354446640
[2.0000e+00 2.0000e+00 2.0000e+00 2.0000e+00 1.9707e+00 1.9339e+00
 1.8451e+00 1.2960e+00 1.2497e+00 6.6326e-01 6.4911e-01 2.8709e-01
 6.7907e-02 2.3223e-02 1.3380e-02 6.1234e-04]
entropy correction =  -0.037358488800167414
cycle= 5 E= -12.7596488547963  delta_E= -1.28  |g|= 0.129  |ddm|= 2.07
HOMO:  -0.2172133073131693 LUMO:  -0.21436714735904083
Fermi energy:      -0.2158081139
[2.0000e+00 2.0000e+00 2.0000e+00 2.0000e+00 1.9576e+00 1.9436e+00
 1.7725e+00 1.5529e+00 1.1396e+00 8.5689e-01 4.0069e-01 2.3780e-01
 1.0867e-01 1.6772e-02 1.2348e-02 6.2865e-04]
entropy correction =  -0.036485263621387806
cycle= 6 E= -12.5516606904311  delta_E= 0.208  |g|= 0.533  |ddm|=  1.4
HOMO:  -0.21715735208725986 LUMO:  -0.21283473701426797
Fermi energy:      -0.2146181221
[2.0000e+00 2.0000e+00 2.0000e+00 2.0000e+00 1.9304e+00 1.7928e+00
 1.7465e+00 1.2631e+00 1.2486e+00 8.2353e-01 7.1640e-01 3.5421e-01
 8.7786e-02 1.9584e-02 1.6168e-02 8.8516e-04]
entropy correction =  -0.042669685315128075
cycle= 7 E= -12.7708545383611  delta_E= -0.219  |g|= 0.0534  |ddm|= 1.13
HOMO:  -0.21745305662468656 LUMO:  -0.21352590272809108
Fermi energy:      -0.2151645468
[2.0000e+00 2.0000e+00 2.0000e+00 2.0000e+00 1.9375e+00 1.8728e+00
 1.7041e+00 1.2390e+00 1.2249e+00 8.3759e-01 6.8604e-01 3.8055e-01
 8.3346e-02 1.7295e-02 1.6142e-02 7.5328e-04]
entropy correction =  -0.04209710362140612
cycle= 8 E= -12.7663812637001  delta_E= 0.00447  |g|= 0.0968  |ddm|= 0.333
HOMO:  -0.21768505689859463 LUMO:  -0.21272429340571156
Fermi energy:      -0.2153184802
[2.0000e+00 2.0000e+00 2.0000e+00 2.0000e+00 1.9345e+00 1.8049e+00
 1.8026e+00 1.2455e+00 1.2323e+00 7.4625e-01 7.3615e-01 3.8044e-01
 8.3881e-02 1.7121e-02 1.5598e-02 7.7044e-04]
entropy correction =  -0.04192111328709787
cycle= 9 E= -12.7709434871839  delta_E= -0.00456  |g|= 0.0621  |ddm|= 0.258
HOMO:  -0.21710430314747334 LUMO:  -0.21234676202651873
Fermi energy:      -0.2147677152
[2.0000e+00 2.0000e+00 2.0000e+00 2.0000e+00 1.9325e+00 1.8289e+00
 1.7882e+00 1.2351e+00 1.2295e+00 7.6253e-01 7.2498e-01 3.8049e-01
 8.4079e-02 1.6777e-02 1.6146e-02 7.8331e-04]
entropy correction =  -0.04188592406571814
cycle= 10 E= -12.7729345960576  delta_E= -0.00199  |g|= 0.0354  |ddm|= 0.126
HOMO:  -0.21742905580127825 LUMO:  -0.21257760798296116
Fermi energy:      -0.2150968277
[2.0000e+00 2.0000e+00 2.0000e+00 2.0000e+00 1.9321e+00 1.8071e+00
 1.8036e+00 1.2365e+00 1.2291e+00 7.5328e-01 7.4287e-01 3.7770e-01
 8.3971e-02 1.6748e-02 1.6277e-02 7.7977e-04]
entropy correction =  -0.04198070120736473
cycle= 11 E= -12.7737344077672  delta_E= -0.0008  |g|= 0.0158  |ddm|= 0.0884
HOMO:  -0.21777773889541938 LUMO:  -0.2129224938705412
Fermi energy:      -0.2154397552
[2.0000e+00 2.0000e+00 2.0000e+00 2.0000e+00 1.9322e+00 1.8029e+00
 1.8011e+00 1.2362e+00 1.2296e+00 7.5346e-01 7.5117e-01 3.7584e-01
 8.3564e-02 1.6929e-02 1.6170e-02 7.7314e-04]
entropy correction =  -0.04205624870340926
cycle= 12 E= -12.7739167726279  delta_E= -0.000182  |g|= 0.00366  |ddm|= 0.0356
HOMO:  -0.2178350279250965 LUMO:  -0.2129736957491808
Fermi energy:      -0.2154933676
[2.0000e+00 2.0000e+00 2.0000e+00 2.0000e+00 1.9323e+00 1.8045e+00
 1.8004e+00 1.2351e+00 1.2300e+00 7.5323e-01 7.5102e-01 3.7616e-01
 8.3447e-02 1.6803e-02 1.6248e-02 7.7091e-04]
entropy correction =  -0.04204423351201743
cycle= 13 E= -12.773911491749  delta_E= 5.28e-06  |g|= 0.00476  |ddm|= 0.0133
HOMO:  -0.2179060916694003 LUMO:  -0.21306440516909952
Fermi energy:      -0.2155658691
[2.0000e+00 2.0000e+00 2.0000e+00 2.0000e+00 1.9324e+00 1.8033e+00
 1.8011e+00 1.2348e+00 1.2298e+00 7.5494e-01 7.5027e-01 3.7625e-01
 8.3335e-02 1.6751e-02 1.6264e-02 7.6820e-04]
entropy correction =  -0.04205030404408833
cycle= 14 E= -12.7739264326936  delta_E= -1.49e-05  |g|= 0.00163  |ddm|= 0.0102
HOMO:  -0.21782224074223475 LUMO:  -0.21294774170567293
Fermi energy:      -0.2154807377
[2.0000e+00 2.0000e+00 2.0000e+00 2.0000e+00 1.9323e+00 1.8039e+00
 1.8031e+00 1.2351e+00 1.2300e+00 7.5198e-01 7.5030e-01 3.7629e-01
 8.3393e-02 1.6799e-02 1.6242e-02 7.7238e-04]
entropy correction =  -0.04201826787107109
cycle= 15 E= -12.7739288361133  delta_E= -2.4e-06  |g|= 0.000688  |ddm|= 0.00515
HOMO:  -0.21782268466478127 LUMO:  -0.21294647426041444
Fermi energy:      -0.2154776596
[2.0000e+00 2.0000e+00 2.0000e+00 2.0000e+00 1.9322e+00 1.8046e+00
 1.8015e+00 1.2350e+00 1.2303e+00 7.5215e-01 7.5070e-01 3.7630e-01
 8.3379e-02 1.6780e-02 1.6273e-02 7.7242e-04]
entropy correction =  -0.042029119241184416
cycle= 16 E= -12.7739283003876  delta_E= 5.36e-07  |g|= 0.00105  |ddm|= 0.00346
HOMO:  -0.2178286491983907 LUMO:  -0.21295604202727744
Fermi energy:      -0.2154852653
[2.0000e+00 2.0000e+00 2.0000e+00 2.0000e+00 1.9322e+00 1.8037e+00
 1.8022e+00 1.2351e+00 1.2301e+00 7.5234e-01 7.5082e-01 3.7631e-01
 8.3370e-02 1.6798e-02 1.6252e-02 7.7199e-04]
entropy correction =  -0.04203265081044246
cycle= 17 E= -12.7739291944306  delta_E= -8.94e-07  |g|= 5.79e-05  |ddm|= 0.00239
HOMO:  -0.21782891714988584 LUMO:  -0.21295548036896333
Fermi energy:      -0.2154856487
[2.0000e+00 2.0000e+00 2.0000e+00 2.0000e+00 1.9322e+00 1.8037e+00
 1.8022e+00 1.2351e+00 1.2301e+00 7.5225e-01 7.5086e-01 3.7632e-01
 8.3367e-02 1.6796e-02 1.6252e-02 7.7191e-04]
entropy correction =  -0.04203153011320146
cycle= 18 E= -12.7739291959126  delta_E= -1.48e-09  |g|= 4.98e-05  |ddm|= 0.000227
HOMO:  -0.21782929484411487 LUMO:  -0.21295635278476885
Fermi energy:      -0.2154861379
[2.0000e+00 2.0000e+00 2.0000e+00 2.0000e+00 1.9322e+00 1.8038e+00
 1.8022e+00 1.2351e+00 1.2301e+00 7.5228e-01 7.5080e-01 3.7632e-01
 8.3365e-02 1.6796e-02 1.6250e-02 7.7186e-04]
entropy correction =  -0.042030848164016456
cycle= 19 E= -12.7739291898924  delta_E= 6.02e-09  |g|= 9.84e-05  |ddm|= 0.000293
HOMO:  -0.21782941881442908 LUMO:  -0.21295622038850656
Fermi energy:      -0.2154862262
[2.0000e+00 2.0000e+00 2.0000e+00 2.0000e+00 1.9322e+00 1.8037e+00
 1.8022e+00 1.2351e+00 1.2301e+00 7.5226e-01 7.5085e-01 3.7631e-01
 8.3365e-02 1.6795e-02 1.6251e-02 7.7189e-04]
entropy correction =  -0.0420312912343709
cycle= 20 E= -12.7739291970342  delta_E= -7.14e-09  |g|= 3.1e-05  |ddm|= 0.000236
HOMO:  -0.21782955241971155 LUMO:  -0.2129563526400767
Fermi energy:      -0.2154863430
[2.0000e+00 2.0000e+00 2.0000e+00 2.0000e+00 1.9322e+00 1.8037e+00
 1.8022e+00 1.2351e+00 1.2301e+00 7.5226e-01 7.5085e-01 3.7631e-01
 8.3365e-02 1.6796e-02 1.6251e-02 7.7189e-04]
entropy correction =  -0.04203135355800198
cycle= 21 E= -12.7739291977534  delta_E= -7.19e-10  |g|= 6.83e-06  |ddm|= 6.83e-05
HOMO:  -0.21782936726207 LUMO:  -0.21295597859239299
Fermi energy:      -0.2154861129
[2.0000e+00 2.0000e+00 2.0000e+00 2.0000e+00 1.9322e+00 1.8037e+00
 1.8022e+00 1.2351e+00 1.2301e+00 7.5225e-01 7.5086e-01 3.7631e-01
 8.3365e-02 1.6795e-02 1.6252e-02 7.7189e-04]
entropy correction =  -0.04203123646351885
Extra cycle  E= -12.7739291962417  delta_E= 1.51e-09  |g|= 4.52e-05  |ddm|= 9.77e-05
degenerate subspace detected:
nsub = 2
subspace 1:
8, 9, 
subspace 2:
11, 12, 

 Adding contributions from fluctuation of occupation numbers.
degenerate subspace detected:
nsub = 4
subspace 1:
1, 2, 
subspace 2:
6, 7, 
subspace 3:
8, 9, 
subspace 4:
10, 11, 

 Adding contributions from fluctuation of occupation numbers.
entropy correction =  -0.04203123646351885
2-norm (grad),       max(grad):
0.049886888151262875 ,  0.0040539417582171125
time of hessian construction : 29.770  (cpu),  0.767  (wall) 
time of hessian construction : 30.340  (cpu),  0.769  (wall) 
f =  0.001244350804708306
|umat| =  3.1545235125164743
rks_ao.ne_frozen =  0
Set gradient conv threshold to 3.16228e-05
Initial guess from hcore.
HOMO:  -3.659055803657779 LUMO:  -3.584045202276528
Fermi energy:      -3.6215505379
[2.0000e+00 2.0000e+00 2.0000e+00 2.0000e+00 2.0000e+00 2.0000e+00
 2.0000e+00 2.0000e+00 1.9989e+00 1.1044e-03]
tot grids = 190200
init E= -37.7056927053814
HOMO:  -0.43903002778245837 LUMO:  -0.4307681539028043
Fermi energy:      -0.4349027772
[2.0000e+00 2.0000e+00 2.0000e+00 2.0000e+00 2.0000e+00 2.0000e+00
 2.0000e+00 1.9999e+00 1.3908e+00 6.0859e-01 7.2154e-04]
entropy correction =  -0.012329579275808614
cycle= 1 E= -39.5883765250679  delta_E= -1.88  |g|= 1.86  |ddm|= 51.4
HOMO:  -0.9906675040080916 LUMO:  -0.940006325088496
Fermi energy:      -0.9653369665
[2.     2.     2.     2.     2.     2.     2.     2.     1.9875 0.0125]
entropy correction =  -0.0007607833309401246
cycle= 2 E= -40.1472629854  delta_E= -0.559  |g|= 1.43  |ddm|= 24.5
HOMO:  -0.8285193607378142 LUMO:  -0.7322621901556796
Fermi energy:      -0.7804306208
[2.0000e+00 2.0000e+00 2.0000e+00 2.0000e+00 2.0000e+00 2.0000e+00
 2.0000e+00 2.0000e+00 1.9999e+00 1.3096e-04]
entropy correction =  -1.4253556349616503e-05
cycle= 3 E= -40.5568634084374  delta_E= -0.41  |g|= 0.924  |ddm|= 10.6
HOMO:  -0.7848189575951046 LUMO:  -0.7150497014042517
Fermi energy:      -0.7505051781
[2.0000e+00 2.0000e+00 2.0000e+00 2.0000e+00 2.0000e+00 2.0000e+00
 2.0000e+00 2.0000e+00 1.9979e+00 1.6636e-03 4.2636e-04]
entropy correction =  -0.00016963356348698638
cycle= 4 E= -40.8561867235895  delta_E= -0.299  |g|= 0.283  |ddm|= 2.75
HOMO:  -0.7581490266234749 LUMO:  -0.7304327506384346
Fermi energy:      -0.7454457490
[2.     2.     2.     2.     2.     2.     2.     2.     1.8539 0.0946
 0.0515]
entropy correction =  -0.0057162499749989675
cycle= 5 E= -40.8827866676663  delta_E= -0.0266  |g|= 0.119  |ddm|= 1.55
HOMO:  -0.7690574416498484 LUMO:  -0.7317635748728132
Fermi energy:      -0.7509190382
[2.     2.     2.     2.     2.     2.     2.     2.     1.9482 0.0425
 0.0093]
entropy correction =  -0.0025261111875575656
cycle= 6 E= -40.889034189397  delta_E= -0.00625  |g|= 0.0389  |ddm|= 0.666
HOMO:  -0.7660392658043866 LUMO:  -0.7314592123110719
Fermi energy:      -0.7492365487
[2.     2.     2.     2.     2.     2.     2.     2.     1.9329 0.0555
 0.0116]
entropy correction =  -0.0030933286516124196
cycle= 7 E= -40.8896721764966  delta_E= -0.000638  |g|= 0.0104  |ddm|= 0.19
HOMO:  -0.7660779009878262 LUMO:  -0.7314928087775443
Fermi energy:      -0.7492752247
[2.     2.     2.     2.     2.     2.     2.     2.     1.9329 0.0555
 0.0116]
entropy correction =  -0.0030937871268272403
cycle= 8 E= -40.8897018274529  delta_E= -2.97e-05  |g|= 0.00482  |ddm|= 0.0498
HOMO:  -0.7657556131943679 LUMO:  -0.7314350159666363
Fermi energy:      -0.7490781406
[2.     2.     2.     2.     2.     2.     2.     2.     1.9313 0.057
 0.0117]
entropy correction =  -0.003151351766237138
cycle= 9 E= -40.889711967142  delta_E= -1.01e-05  |g|= 0.000976  |ddm|= 0.0211
HOMO:  -0.7658549787076605 LUMO:  -0.7314690193654699
Fermi energy:      -0.7491482145
[2.     2.     2.     2.     2.     2.     2.     2.     1.9316 0.0566
 0.0117]
entropy correction =  -0.003138111538234722
cycle= 10 E= -40.8897125049269  delta_E= -5.38e-07  |g|= 0.000109  |ddm|= 0.00454
HOMO:  -0.7658568750663348 LUMO:  -0.7314698350124752
Fermi energy:      -0.7491490226
[2.     2.     2.     2.     2.     2.     2.     2.     1.9317 0.0566
 0.0117]
entropy correction =  -0.0031375020783264984
cycle= 11 E= -40.88971251138  delta_E= -6.45e-09  |g|= 1.84e-05  |ddm|= 0.000756
HOMO:  -0.7658567533759155 LUMO:  -0.7314693091924153
Fermi energy:      -0.7491488094
[2.     2.     2.     2.     2.     2.     2.     2.     1.9317 0.0566
 0.0117]
entropy correction =  -0.003137478376494695
cycle= 12 E= -40.8897125115492  delta_E= -1.69e-10  |g|= 2.15e-06  |ddm|= 9.58e-05
HOMO:  -0.7658572748728435 LUMO:  -0.7314695989614618
Fermi energy:      -0.7491492052
[2.     2.     2.     2.     2.     2.     2.     2.     1.9317 0.0566
 0.0117]
entropy correction =  -0.0031374173578858455
Extra cycle  E= -40.889712511549  delta_E= 2.13e-13  |g|= 2.14e-06  |ddm|= 2.58e-05
entropy correction =  -0.0031374173578858455
rks_ao.ne_frozen =  0
Set gradient conv threshold to 3.16228e-05
Initial guess from hcore.
HOMO:  -2.7489130251704057 LUMO:  -2.7401194639642297
Fermi energy:      -2.7445091352
[2.0000e+00 2.0000e+00 2.0000e+00 2.0000e+00 2.0000e+00 2.0000e+00
 2.0000e+00 1.9985e+00 1.4140e+00 5.8721e-01 3.3649e-04]
tot grids = 190200
init E= -40.5802023476633
HOMO:  -0.3348885537024642 LUMO:  -0.3110160442191669
Fermi energy:      -0.3229522979
[2.     2.     2.     2.     2.     2.     2.     2.     1.8317 0.1683]
entropy correction =  -0.0057758085881776475
cycle= 1 E= -41.5773253300132  delta_E= -0.997  |g|= 1.03  |ddm|= 18.1
HOMO:  -0.5094880242291242 LUMO:  -0.48361424984115436
Fermi energy:      -0.4965541349
[2.0000e+00 2.0000e+00 2.0000e+00 2.0000e+00 2.0000e+00 2.0000e+00
 2.0000e+00 2.0000e+00 1.8600e+00 1.3983e-01 1.5201e-04]
entropy correction =  -0.005078720869578822
cycle= 2 E= -41.5791656254912  delta_E= -0.00184  |g|= 1.04  |ddm|= 7.54
HOMO:  -0.4476901542182654 LUMO:  -0.44249152150914184
Fermi energy:      -0.4451296784
[2.     2.     2.     2.     2.     2.     2.     2.     1.2506 0.7421
 0.0073]
entropy correction =  -0.013449850000276526
cycle= 3 E= -41.8487254839069  delta_E= -0.27  |g|= 0.425  |ddm|= 3.52
HOMO:  -0.44118886731762197 LUMO:  -0.41844605906969595
Fermi energy:      -0.4298193323
[2.0000e+00 2.0000e+00 2.0000e+00 2.0000e+00 2.0000e+00 2.0000e+00
 2.0000e+00 2.0000e+00 1.8134e+00 1.8649e-01 1.2488e-04]
entropy correction =  -0.006207899947376979
cycle= 4 E= -41.9019850030152  delta_E= -0.0533  |g|= 0.194  |ddm|= 1.99
HOMO:  -0.43411931167260187 LUMO:  -0.43180738199548496
Fermi energy:      -0.4329643440
[2.0000e+00 2.0000e+00 2.0000e+00 2.0000e+00 2.0000e+00 2.0000e+00
 2.0000e+00 2.0000e+00 1.1150e+00 8.8482e-01 1.9611e-04]
entropy correction =  -0.013740350886608379
cycle= 5 E= -41.9026624050278  delta_E= -0.000677  |g|= 0.17  |ddm|= 1.51
HOMO:  -0.4404973631873671 LUMO:  -0.4266680326260135
Fermi energy:      -0.4335842898
[2.0000e+00 2.0000e+00 2.0000e+00 2.0000e+00 2.0000e+00 2.0000e+00
 2.0000e+00 2.0000e+00 1.5988e+00 4.0097e-01 2.0356e-04]
entropy correction =  -0.010033445281740725
cycle= 6 E= -41.9149987030114  delta_E= -0.0123  |g|= 0.0503  |ddm|= 1.06
HOMO:  -0.44019878363033704 LUMO:  -0.42656356616265995
Fermi energy:      -0.4333828977
[2.0000e+00 2.0000e+00 2.0000e+00 2.0000e+00 2.0000e+00 2.0000e+00
 2.0000e+00 2.0000e+00 1.5926e+00 4.0723e-01 2.2270e-04]
entropy correction =  -0.010120308136921743
cycle= 7 E= -41.9153758541327  delta_E= -0.000377  |g|= 0.0339  |ddm|= 0.106
HOMO:  -0.4393508248193546 LUMO:  -0.42749608753023804
Fermi energy:      -0.4334250132
[2.0000e+00 2.0000e+00 2.0000e+00 2.0000e+00 2.0000e+00 2.0000e+00
 2.0000e+00 2.0000e+00 1.5317e+00 4.6803e-01 2.2265e-04]
entropy correction =  -0.010894306642461927
cycle= 8 E= -41.9158640796791  delta_E= -0.000488  |g|= 0.00802  |ddm|= 0.132
HOMO:  -0.4393707697848635 LUMO:  -0.4276751710307014
Fermi energy:      -0.4335245405
[2.0000e+00 2.0000e+00 2.0000e+00 2.0000e+00 2.0000e+00 2.0000e+00
 2.0000e+00 2.0000e+00 1.5260e+00 4.7376e-01 2.2644e-04]
entropy correction =  -0.010961951334891756
cycle= 9 E= -41.9158834370182  delta_E= -1.94e-05  |g|= 0.00151  |ddm|= 0.0251
HOMO:  -0.4393033113072128 LUMO:  -0.4276435133530894
Fermi energy:      -0.4334749807
[2.0000e+00 2.0000e+00 2.0000e+00 2.0000e+00 2.0000e+00 2.0000e+00
 2.0000e+00 2.0000e+00 1.5247e+00 4.7505e-01 2.2662e-04]
entropy correction =  -0.010977090950785378
cycle= 10 E= -41.9158842689454  delta_E= -8.32e-07  |g|= 0.00054  |ddm|= 0.00549
HOMO:  -0.4393071341965691 LUMO:  -0.42766805666039676
Fermi energy:      -0.4334891667
[2.0000e+00 2.0000e+00 2.0000e+00 2.0000e+00 2.0000e+00 2.0000e+00
 2.0000e+00 2.0000e+00 1.5240e+00 4.7580e-01 2.2729e-04]
entropy correction =  -0.010985870920381677
cycle= 11 E= -41.9158843741669  delta_E= -1.05e-07  |g|= 6.09e-05  |ddm|= 0.00217
HOMO:  -0.4393055192682055 LUMO:  -0.4276694330073465
Fermi energy:      -0.4334890474
[2.0000e+00 2.0000e+00 2.0000e+00 2.0000e+00 2.0000e+00 2.0000e+00
 2.0000e+00 2.0000e+00 1.5239e+00 4.7591e-01 2.2732e-04]
entropy correction =  -0.010987134785093174
cycle= 12 E= -41.9158843756857  delta_E= -1.52e-09  |g|= 1.53e-05  |ddm|= 0.000323
HOMO:  -0.43930552222293573 LUMO:  -0.4276694932378564
Fermi energy:      -0.4334890789
[2.0000e+00 2.0000e+00 2.0000e+00 2.0000e+00 2.0000e+00 2.0000e+00
 2.0000e+00 2.0000e+00 1.5239e+00 4.7591e-01 2.2731e-04]
entropy correction =  -0.010987158499472743
cycle= 13 E= -41.9158843757648  delta_E= -7.91e-11  |g|= 1.8e-06  |ddm|= 7.2e-05
HOMO:  -0.4393054463596613 LUMO:  -0.42766929672172177
Fermi energy:      -0.4334889427
[2.0000e+00 2.0000e+00 2.0000e+00 2.0000e+00 2.0000e+00 2.0000e+00
 2.0000e+00 2.0000e+00 1.5239e+00 4.7591e-01 2.2731e-04]
entropy correction =  -0.010987107311183339
Extra cycle  E= -41.9158843757613  delta_E= 3.48e-12  |g|= 3.7e-06  |ddm|= 1.89e-05
 Adding contributions from fluctuation of occupation numbers.
 Adding contributions from fluctuation of occupation numbers.
entropy correction =  -0.010987107311183339
2-norm (grad),       max(grad):
351.42733076267706 ,  58.05225285324282
time of hessian construction : 14.700  (cpu),  0.368  (wall) 
time of hessian construction : 16.980  (cpu),  0.425  (wall) 
f =  61750.58440349001
|umat| =  2.744949734264116
rks_ao.ne_frozen =  0
Set gradient conv threshold to 3.16228e-05
Initial guess from hcore.
HOMO:  -3.5054785917301725 LUMO:  -3.3119481819379186
Fermi energy:      -3.4069667019
[2. 2. 2. 2. 2. 2. 2. 2. 2.]
tot grids = 190200
init E= -10.113471376437
HOMO:  -0.06762119821467341 LUMO:  -0.0672773276996365
Fermi energy:      -0.0719123328
[2.     2.     2.     2.     2.     2.     1.9951 1.9444 0.5954 0.5671
 0.4592 0.4388]
entropy correction =  -0.024142307536797105
cycle= 1 E= -10.2048903586575  delta_E= -0.0914  |g|= 2.75  |ddm|= 7.88
HOMO:  -0.7796734043967343 LUMO:  -0.6501149928114229
Fermi energy:      -0.7135580688
[2. 2. 2. 2. 2. 2. 2. 2. 2.]
entropy correction =  -1.013433530803233e-06
cycle= 2 E= -11.52799298693  delta_E= -1.32  |g|= 2.03  |ddm|= 6.48
HOMO:  -0.4506785617708224 LUMO:  -0.41775554621827893
Fermi energy:      -0.4348883213
[2.0000e+00 2.0000e+00 2.0000e+00 2.0000e+00 1.9997e+00 1.9971e+00
 1.9970e+00 1.9188e+00 1.9184e+00 6.2952e-02 6.2049e-02 2.6368e-02
 1.6967e-02 6.8354e-04]
entropy correction =  -0.007644926786875076
cycle= 3 E= -13.2283901147649  delta_E= -1.7  |g|= 0.546  |ddm|= 3.81
HOMO:  -0.365733374026233 LUMO:  -0.3651596148689641
Fermi energy:      -0.3679998526
[2.0000e+00 1.9990e+00 1.9961e+00 1.9953e+00 1.9775e+00 1.9758e+00
 1.8859e+00 1.2596e+00 7.7715e-01 7.2337e-01 6.0720e-01 5.6288e-01
 2.4006e-01 2.0553e-04]
entropy correction =  -0.039388324785533245
cycle= 4 E= -13.3653378277871  delta_E= -0.137  |g|= 0.195  |ddm|= 1.67
HOMO:  -0.3688823119038186 LUMO:  -0.3628483349240881
Fermi energy:      -0.3677032911
[2.0000e+00 1.9999e+00 1.9988e+00 1.9985e+00 1.9843e+00 1.9790e+00
 1.9493e+00 1.4399e+00 1.1174e+00 5.4937e-01 4.6949e-01 4.4030e-01
 7.3541e-02 1.6937e-04]
entropy correction =  -0.033315091334029184
cycle= 5 E= -12.9972859784505  delta_E= 0.368  |g|= 0.757  |ddm|=  1.4
HOMO:  -0.37322878285302086 LUMO:  -0.36872917151104534
Fermi energy:      -0.3716309916
[2.0000e+00 1.9998e+00 1.9971e+00 1.9952e+00 1.9729e+00 1.9669e+00
 1.9622e+00 1.1750e+00 1.1584e+00 7.1770e-01 4.9122e-01 4.7499e-01
 8.8313e-02 2.1298e-04]
entropy correction =  -0.03577114366049736
cycle= 6 E= -13.3828009931394  delta_E= -0.386  |g|= 0.137  |ddm|= 1.05
HOMO:  -0.3717083541714161 LUMO:  -0.370460519125385
Fermi energy:      -0.3710234905
[2.0000e+00 1.9994e+00 1.9963e+00 1.9885e+00 1.9763e+00 1.9476e+00
 1.9294e+00 1.2211e+00 1.0684e+00 9.4376e-01 5.5212e-01 3.0755e-01
 6.9244e-02 2.3356e-04]
entropy correction =  -0.036105656281988974
cycle= 7 E= -13.371606611258  delta_E= 0.0112  |g|= 0.156  |ddm|= 0.561
HOMO:  -0.3701449322227009 LUMO:  -0.36744944332886764
Fermi energy:      -0.3695628385
[2.0000e+00 1.9992e+00 1.9925e+00 1.9908e+00 1.9618e+00 1.9551e+00
 1.9365e+00 1.1632e+00 1.0581e+00 7.9175e-01 5.4028e-01 5.2714e-01
 8.3322e-02 2.4958e-04]
entropy correction =  -0.037774848125534825
cycle= 8 E= -13.3934625080936  delta_E= -0.0219  |g|= 0.0711  |ddm|= 0.479
HOMO:  -0.36814574279341983 LUMO:  -0.3660537845907317
Fermi energy:      -0.3677176381
[2.0000e+00 1.9991e+00 1.9917e+00 1.9886e+00 1.9645e+00 1.9555e+00
 1.9371e+00 1.0842e+00 1.0428e+00 8.3513e-01 5.6251e-01 5.5176e-01
 8.6901e-02 2.4406e-04]
entropy correction =  -0.038259743206193984
cycle= 9 E= -13.3882029950625  delta_E= 0.00526  |g|= 0.113  |ddm|= 0.27
HOMO:  -0.36458716926502904 LUMO:  -0.3640022178447375
Fermi energy:      -0.3651566479
[2.0000e+00 1.9990e+00 1.9893e+00 1.9851e+00 1.9644e+00 1.9628e+00
 1.9355e+00 1.0304e+00 9.4311e-01 8.8507e-01 6.2183e-01 5.8866e-01
 9.4462e-02 2.3731e-04]
entropy correction =  -0.03893730067704869
cycle= 10 E= -13.3950303213457  delta_E= -0.00683  |g|= 0.0549  |ddm|= 0.239
HOMO:  -0.36429150499420604 LUMO:  -0.3638564007175851
Fermi energy:      -0.3647850136
[2.0000e+00 1.9990e+00 1.9889e+00 1.9867e+00 1.9649e+00 1.9619e+00
 1.9369e+00 9.9564e-01 9.5069e-01 9.0740e-01 6.1640e-01 5.9303e-01
 9.8315e-02 2.3523e-04]
entropy correction =  -0.03898053145486241
cycle= 11 E= -13.3954522425175  delta_E= -0.000422  |g|= 0.0535  |ddm|= 0.161
HOMO:  -0.36458270841369683 LUMO:  -0.3637999683504517
Fermi energy:      -0.3649179291
[2.0000e+00 1.9991e+00 1.9893e+00 1.9872e+00 1.9643e+00 1.9626e+00
 1.9389e+00 9.9666e-01 9.6649e-01 8.8867e-01 6.0738e-01 6.0184e-01
 9.7378e-02 2.3771e-04]
entropy correction =  -0.03889339584583627
cycle= 12 E= -13.3972736585724  delta_E= -0.00182  |g|= 0.0149  |ddm|= 0.118
HOMO:  -0.36586558661376795 LUMO:  -0.3645210449805982
Fermi energy:      -0.3658132410
[2.0000e+00 1.9991e+00 1.9903e+00 1.9883e+00 1.9626e+00 1.9615e+00
 1.9373e+00 1.0094e+00 1.0052e+00 8.7149e-01 5.9334e-01 5.8555e-01
 9.5762e-02 2.4233e-04]
entropy correction =  -0.038753708433093524
cycle= 13 E= -13.3974935133215  delta_E= -0.00022  |g|= 0.00236  |ddm|= 0.0472
HOMO:  -0.3659207272243263 LUMO:  -0.3645666890292395
Fermi energy:      -0.3658757291
[2.0000e+00 1.9991e+00 1.9901e+00 1.9883e+00 1.9634e+00 1.9610e+00
 1.9379e+00 1.0097e+00 1.0045e+00 8.6984e-01 5.9499e-01 5.8567e-01
 9.5394e-02 2.4152e-04]
entropy correction =  -0.03874215933483317
cycle= 14 E= -13.397485379328  delta_E= 8.13e-06  |g|= 0.00355  |ddm|= 0.0146
HOMO:  -0.36594678003582354 LUMO:  -0.36457265896335206
Fermi energy:      -0.3658908887
[2.0000e+00 1.9991e+00 1.9902e+00 1.9882e+00 1.9628e+00 1.9617e+00
 1.9382e+00 1.0081e+00 1.0056e+00 8.6894e-01 5.9452e-01 5.8709e-01
 9.5276e-02 2.4098e-04]
entropy correction =  -0.038734887624018596
cycle= 15 E= -13.3974968453404  delta_E= -1.15e-05  |g|= 0.00133  |ddm|= 0.0122
HOMO:  -0.3659641926937426 LUMO:  -0.364591920474256
Fermi energy:      -0.3659021921
[2.0000e+00 1.9991e+00 1.9902e+00 1.9882e+00 1.9629e+00 1.9615e+00
 1.9378e+00 1.0077e+00 1.0062e+00 8.6972e-01 5.9463e-01 5.8667e-01
 9.5370e-02 2.4166e-04]
entropy correction =  -0.038748727086295454
cycle= 16 E= -13.3974987904399  delta_E= -1.95e-06  |g|= 0.000424  |ddm|= 0.00426
HOMO:  -0.3659580756018667 LUMO:  -0.36458988284297617
Fermi energy:      -0.3658956815
[2.0000e+00 1.9991e+00 1.9902e+00 1.9881e+00 1.9629e+00 1.9614e+00
 1.9376e+00 1.0071e+00 1.0062e+00 8.7016e-01 5.9419e-01 5.8737e-01
 9.5414e-02 2.4182e-04]
entropy correction =  -0.03875491064871543
cycle= 17 E= -13.3974970825868  delta_E= 1.71e-06  |g|= 0.00139  |ddm|= 0.00414
HOMO:  -0.3659557658344377 LUMO:  -0.3645871178324044
Fermi energy:      -0.3658945078
[2.0000e+00 1.9991e+00 1.9901e+00 1.9882e+00 1.9629e+00 1.9615e+00
 1.9377e+00 1.0072e+00 1.0061e+00 8.7000e-01 5.9467e-01 5.8684e-01
 9.5408e-02 2.4166e-04]
entropy correction =  -0.038751194482980846
cycle= 18 E= -13.3974986266424  delta_E= -1.54e-06  |g|= 0.000617  |ddm|= 0.00405
HOMO:  -0.3659367163882291 LUMO:  -0.364577947060548
Fermi energy:      -0.3658826488
[2.0000e+00 1.9991e+00 1.9901e+00 1.9881e+00 1.9629e+00 1.9615e+00
 1.9377e+00 1.0072e+00 1.0054e+00 8.7027e-01 5.9491e-01 5.8706e-01
 9.5430e-02 2.4167e-04]
entropy correction =  -0.03875482808357933
cycle= 19 E= -13.3974988382416  delta_E= -2.12e-07  |g|= 0.000348  |ddm|= 0.00167
HOMO:  -0.3659327129736312 LUMO:  -0.3645742738729848
Fermi energy:      -0.3658778732
[2.0000e+00 1.9991e+00 1.9901e+00 1.9881e+00 1.9629e+00 1.9615e+00
 1.9377e+00 1.0069e+00 1.0055e+00 8.7037e-01 5.9497e-01 5.8714e-01
 9.5443e-02 2.4166e-04]
entropy correction =  -0.03875579691709906
cycle= 20 E= -13.3974983873113  delta_E= 4.51e-07  |g|= 0.000888  |ddm|= 0.00176
HOMO:  -0.3659427360372635 LUMO:  -0.3645782322634333
Fermi energy:      -0.3658830195
[2.0000e+00 1.9991e+00 1.9901e+00 1.9882e+00 1.9629e+00 1.9615e+00
 1.9377e+00 1.0067e+00 1.0060e+00 8.7026e-01 5.9473e-01 5.8713e-01
 9.5438e-02 2.4163e-04]
entropy correction =  -0.03875373569645562
cycle= 21 E= -13.3974988811072  delta_E= -4.94e-07  |g|= 0.000295  |ddm|= 0.00156
HOMO:  -0.36594220301922203 LUMO:  -0.36457941253494597
Fermi energy:      -0.3658841761
[2.0000e+00 1.9991e+00 1.9901e+00 1.9882e+00 1.9629e+00 1.9615e+00
 1.9377e+00 1.0070e+00 1.0058e+00 8.7026e-01 5.9476e-01 5.8706e-01
 9.5439e-02 2.4165e-04]
entropy correction =  -0.03875388500724796
cycle= 22 E= -13.397498946455  delta_E= -6.53e-08  |g|= 4.15e-05  |ddm|= 0.000611
HOMO:  -0.3659447939880047 LUMO:  -0.3645811158596794
Fermi energy:      -0.3658863388
[2.0000e+00 1.9991e+00 1.9901e+00 1.9882e+00 1.9629e+00 1.9615e+00
 1.9377e+00 1.0071e+00 1.0058e+00 8.7021e-01 5.9473e-01 5.8701e-01
 9.5434e-02 2.4166e-04]
entropy correction =  -0.03875342011210107
cycle= 23 E= -13.39749894692  delta_E= -4.65e-10  |g|= 3.28e-05  |ddm|= 0.000131
HOMO:  -0.3659451658083306 LUMO:  -0.36458109702037195
Fermi energy:      -0.3658864722
[2.0000e+00 1.9991e+00 1.9901e+00 1.9882e+00 1.9629e+00 1.9615e+00
 1.9377e+00 1.0070e+00 1.0059e+00 8.7020e-01 5.9473e-01 5.8701e-01
 9.5432e-02 2.4165e-04]
entropy correction =  -0.03875325032699841
cycle= 24 E= -13.3974989477615  delta_E= -8.41e-10  |g|= 1.21e-05  |ddm|= 9.35e-05
HOMO:  -0.3659472530584771 LUMO:  -0.36458237326569193
Fermi energy:      -0.3658882512
[2.0000e+00 1.9991e+00 1.9902e+00 1.9882e+00 1.9629e+00 1.9615e+00
 1.9377e+00 1.0071e+00 1.0059e+00 8.7015e-01 5.9472e-01 5.8696e-01
 9.5427e-02 2.4165e-04]
entropy correction =  -0.038752809778726575
Extra cycle  E= -13.3974989416105  delta_E= 6.15e-09  |g|= 8.82e-05  |ddm|= 0.000204
entropy correction =  -0.038752809778726575
rks_ao.ne_frozen =  0
Set gradient conv threshold to 3.16228e-05
Initial guess from hcore.
HOMO:  -2.5701896155416453 LUMO:  -2.5698120677932565
Fermi energy:      -2.5706451141
[2.0000e+00 2.0000e+00 2.0000e+00 2.0000e+00 2.0000e+00 2.0000e+00
 2.0000e+00 1.9959e+00 9.5448e-01 9.1689e-01 6.2935e-02 6.0349e-02
 4.5707e-03 4.1537e-03 7.6155e-04]
tot grids = 190200
init E= -9.69435771168479
HOMO:  0.020085042359601214 LUMO:  0.022866411231505075
Fermi energy:       0.0199444583
[2.     2.     2.     2.     2.     2.     1.9952 1.3617 0.9859 0.7158
 0.4212 0.2229 0.1131 0.088  0.0455 0.0369 0.0083 0.0029 0.0025]
entropy correction =  -0.034986423698320224
cycle= 1 E= -10.9816597254301  delta_E= -1.29  |g|= 2.09  |ddm|= 9.52
HOMO:  -0.45031322486372666 LUMO:  -0.4398157412533368
Fermi energy:      -0.4449549237
[2.     2.     2.     2.     2.     2.     1.9994 1.5667 1.4898 0.527
 0.2017 0.1792 0.034  0.002 ]
entropy correction =  -0.02393680763833287
cycle= 2 E= -11.0732666188299  delta_E= -0.0916  |g|= 2.12  |ddm|= 9.34
HOMO:  -0.296824363609636 LUMO:  -0.2831674976571615
Fermi energy:      -0.2887384233
[2.     2.     2.     2.     1.9966 1.9849 1.9764 1.6969 1.6688 0.4942
 0.0703 0.0572 0.0481 0.0034 0.0031]
entropy correction =  -0.019745584397976433
cycle= 3 E= -12.2904558647198  delta_E= -1.22  |g|= 0.886  |ddm|= 1.83
HOMO:  -0.25959412168035945 LUMO:  -0.25658393544617736
Fermi energy:      -0.2580315972
[2.0000e+00 2.0000e+00 2.0000e+00 2.0000e+00 1.9992e+00 1.9527e+00
 1.9071e+00 1.7540e+00 1.1550e+00 8.5624e-01 1.5559e-01 1.3972e-01
 7.7396e-02 1.8592e-03 9.9823e-04 1.5739e-04]
entropy correction =  -0.02743070365410129
cycle= 4 E= -11.4821495893403  delta_E= 0.808  |g|= 1.32  |ddm|= 2.14
HOMO:  -0.2379959217914239 LUMO:  -0.23194053459822173
Fermi energy:      -0.2354447252
[2.0000e+00 2.0000e+00 2.0000e+00 2.0000e+00 1.9707e+00 1.9339e+00
 1.8451e+00 1.2960e+00 1.2497e+00 6.6325e-01 6.4911e-01 2.8709e-01
 6.7907e-02 2.3223e-02 1.3380e-02 6.1234e-04]
entropy correction =  -0.03735850347251248
cycle= 5 E= -12.7596486985621  delta_E= -1.28  |g|= 0.129  |ddm|= 2.07
HOMO:  -0.21721338128111378 LUMO:  -0.21436714443878868
Fermi energy:      -0.2158081548
[2.0000e+00 2.0000e+00 2.0000e+00 2.0000e+00 1.9576e+00 1.9436e+00
 1.7725e+00 1.5529e+00 1.1396e+00 8.5689e-01 4.0068e-01 2.3780e-01
 1.0867e-01 1.6772e-02 1.2348e-02 6.2865e-04]
entropy correction =  -0.03648522044229037
cycle= 6 E= -12.5516599848532  delta_E= 0.208  |g|= 0.533  |ddm|=  1.4
HOMO:  -0.2171573560677211 LUMO:  -0.21283475206794192
Fermi energy:      -0.2146181306
[2.0000e+00 2.0000e+00 2.0000e+00 2.0000e+00 1.9304e+00 1.7928e+00
 1.7465e+00 1.2631e+00 1.2486e+00 8.2353e-01 7.1640e-01 3.5421e-01
 8.7786e-02 1.9584e-02 1.6169e-02 8.8516e-04]
entropy correction =  -0.04266969112320775
cycle= 7 E= -12.7708546708011  delta_E= -0.219  |g|= 0.0534  |ddm|= 1.13
HOMO:  -0.21745303099390717 LUMO:  -0.21352594724102708
Fermi energy:      -0.2151645324
[2.0000e+00 2.0000e+00 2.0000e+00 2.0000e+00 1.9375e+00 1.8728e+00
 1.7041e+00 1.2390e+00 1.2249e+00 8.3759e-01 6.8604e-01 3.8055e-01
 8.3346e-02 1.7295e-02 1.6143e-02 7.5327e-04]
entropy correction =  -0.042097086762966786
cycle= 8 E= -12.7663816924218  delta_E= 0.00447  |g|= 0.0968  |ddm|= 0.333
HOMO:  -0.21768508417716553 LUMO:  -0.21272416049734025
Fermi energy:      -0.2153184820
[2.0000e+00 2.0000e+00 2.0000e+00 2.0000e+00 1.9345e+00 1.8048e+00
 1.8026e+00 1.2455e+00 1.2323e+00 7.4624e-01 7.3616e-01 3.8044e-01
 8.3881e-02 1.7122e-02 1.5598e-02 7.7044e-04]
entropy correction =  -0.04192109190751671
cycle= 9 E= -12.7709441646056  delta_E= -0.00456  |g|= 0.0621  |ddm|= 0.258
HOMO:  -0.21710435459683627 LUMO:  -0.21234682502339625
Fermi energy:      -0.2147677801
[2.0000e+00 2.0000e+00 2.0000e+00 2.0000e+00 1.9325e+00 1.8289e+00
 1.7882e+00 1.2351e+00 1.2295e+00 7.6253e-01 7.2498e-01 3.8049e-01
 8.4079e-02 1.6776e-02 1.6146e-02 7.8331e-04]
entropy correction =  -0.041885967279637414
cycle= 10 E= -12.7729346813995  delta_E= -0.00199  |g|= 0.0354  |ddm|= 0.126
HOMO:  -0.2174290470246659 LUMO:  -0.21257761612426915
Fermi energy:      -0.2150968255
[2.0000e+00 2.0000e+00 2.0000e+00 2.0000e+00 1.9321e+00 1.8071e+00
 1.8036e+00 1.2365e+00 1.2291e+00 7.5328e-01 7.4287e-01 3.7770e-01
 8.3971e-02 1.6748e-02 1.6277e-02 7.7977e-04]
entropy correction =  -0.04198071587502452
cycle= 11 E= -12.7737344231297  delta_E= -0.0008  |g|= 0.0158  |ddm|= 0.0884
HOMO:  -0.2177777217726961 LUMO:  -0.2129224941455033
Fermi energy:      -0.2154397447
[2.0000e+00 2.0000e+00 2.0000e+00 2.0000e+00 1.9322e+00 1.8029e+00
 1.8011e+00 1.2362e+00 1.2296e+00 7.5346e-01 7.5116e-01 3.7584e-01
 8.3564e-02 1.6929e-02 1.6170e-02 7.7314e-04]
entropy correction =  -0.042056247501279
cycle= 12 E= -12.7739167804821  delta_E= -0.000182  |g|= 0.00366  |ddm|= 0.0356
HOMO:  -0.2178350231596665 LUMO:  -0.2129736892809195
Fermi energy:      -0.2154933665
[2.0000e+00 2.0000e+00 2.0000e+00 2.0000e+00 1.9323e+00 1.8045e+00
 1.8004e+00 1.2351e+00 1.2300e+00 7.5323e-01 7.5102e-01 3.7616e-01
 8.3447e-02 1.6803e-02 1.6248e-02 7.7091e-04]
entropy correction =  -0.042044241285447266
cycle= 13 E= -12.7739114985412  delta_E= 5.28e-06  |g|= 0.00476  |ddm|= 0.0133
HOMO:  -0.2179061085529552 LUMO:  -0.2130644376750022
Fermi energy:      -0.2155658900
[2.0000e+00 2.0000e+00 2.0000e+00 2.0000e+00 1.9324e+00 1.8033e+00
 1.8011e+00 1.2348e+00 1.2298e+00 7.5494e-01 7.5027e-01 3.7625e-01
 8.3335e-02 1.6751e-02 1.6264e-02 7.6820e-04]
entropy correction =  -0.042050328421288086
cycle= 14 E= -12.7739264349334  delta_E= -1.49e-05  |g|= 0.00163  |ddm|= 0.0102
HOMO:  -0.21782223432428335 LUMO:  -0.2129477418169835
Fermi energy:      -0.2154807357
[2.0000e+00 2.0000e+00 2.0000e+00 2.0000e+00 1.9323e+00 1.8039e+00
 1.8031e+00 1.2351e+00 1.2300e+00 7.5198e-01 7.5030e-01 3.7629e-01
 8.3393e-02 1.6799e-02 1.6242e-02 7.7238e-04]
entropy correction =  -0.04201827671226102
cycle= 15 E= -12.7739288403338  delta_E= -2.41e-06  |g|= 0.000688  |ddm|= 0.00515
HOMO:  -0.21782267588347135 LUMO:  -0.21294647172125533
Fermi energy:      -0.2154776544
[...]
[2.0000e+00 1.9980e+00 1.9942e+00 1.9940e+00 1.9651e+00 1.9566e+00
 1.9024e+00 1.0268e+00 1.0014e+00 9.7435e-01 5.3874e-01 5.2135e-01
 1.2680e-01 2.7718e-04]
entropy correction =  -0.039085349265466224
cycle= 4 E= -13.3935339841233  delta_E= -0.0344  |g|= 0.0788  |ddm|= 0.809
HOMO:  -0.36547944273828753 LUMO:  -0.3648976732394501
Fermi energy:      -0.3661374626
[2.0000e+00 1.9993e+00 1.9922e+00 1.9873e+00 1.9735e+00 1.9560e+00
 1.9445e+00 1.0925e+00 9.3429e-01 8.7665e-01 6.1164e-01 5.3384e-01
 9.8163e-02 2.1298e-04]
entropy correction =  -0.03828367863263673
cycle= 5 E= -13.3673527129182  delta_E= 0.0262  |g|= 0.211  |ddm|= 0.507
HOMO:  -0.3654415275965095 LUMO:  -0.36494291778714105
Fermi energy:      -0.3659684770
[2.0000e+00 1.9993e+00 1.9904e+00 1.9864e+00 1.9694e+00 1.9612e+00
 1.9487e+00 1.0027e+00 9.4735e-01 8.9780e-01 6.1741e-01 5.7726e-01
 1.0176e-01 2.1260e-04]
entropy correction =  -0.038621033776162356
cycle= 6 E= -13.3983446366271  delta_E= -0.031  |g|= 0.0519  |ddm|= 0.353
HOMO:  -0.3662620356689207 LUMO:  -0.36556058054273516
Fermi energy:      -0.3665794279
[2.0000e+00 1.9993e+00 1.9899e+00 1.9884e+00 1.9706e+00 1.9550e+00
 1.9473e+00 1.0537e+00 9.6827e-01 8.9847e-01 5.7889e-01 5.5487e-01
 9.5131e-02 2.1894e-04]
entropy correction =  -0.038334596298691036
cycle= 7 E= -13.3968983306752  delta_E= 0.00145  |g|= 0.0628  |ddm|= 0.259
HOMO:  -0.3679609709404185 LUMO:  -0.3656690964785358
Fermi energy:      -0.3674065395
[2.0000e+00 1.9992e+00 1.9907e+00 1.9892e+00 1.9602e+00 1.9595e+00
 1.9423e+00 1.0564e+00 1.0554e+00 8.2798e-01 5.6574e-01 5.6177e-01
 9.1403e-02 2.3185e-04]
entropy correction =  -0.03831883220746039
cycle= 8 E= -13.3999647696845  delta_E= -0.00307  |g|= 0.032  |ddm|= 0.168
HOMO:  -0.36768210196392614 LUMO:  -0.36555214887009885
Fermi energy:      -0.3672241112
[2.0000e+00 1.9991e+00 1.9906e+00 1.9887e+00 1.9603e+00 1.9597e+00
 1.9416e+00 1.0511e+00 1.0458e+00 8.3434e-01 5.6890e-01 5.6760e-01
 9.2051e-02 2.3213e-04]
entropy correction =  -0.03841363221239338
cycle= 9 E= -13.4003834439138  delta_E= -0.000419  |g|= 0.0208  |ddm|= 0.0624
HOMO:  -0.36645863805602114 LUMO:  -0.36493021050399194
Fermi energy:      -0.3662964255
[2.0000e+00 1.9990e+00 1.9893e+00 1.9871e+00 1.9610e+00 1.9605e+00
 1.9389e+00 1.0176e+00 1.0162e+00 8.6422e-01 5.8736e-01 5.8411e-01
 9.4534e-02 2.3181e-04]
entropy correction =  -0.0387747766735252
cycle= 10 E= -13.4004063604968  delta_E= -2.29e-05  |g|= 0.0222  |ddm|= 0.0613
HOMO:  -0.36594002545059773 LUMO:  -0.36473152122776786
Fermi energy:      -0.3659489692
[2.0000e+00 1.9990e+00 1.9887e+00 1.9866e+00 1.9615e+00 1.9612e+00
 1.9383e+00 1.0019e+00 9.9911e-01 8.7885e-01 5.9626e-01 5.9185e-01
 9.6575e-02 2.3059e-04]
entropy correction =  -0.0389144910848373
cycle= 11 E= -13.4007352051509  delta_E= -0.000329  |g|= 0.00356  |ddm|= 0.043
HOMO:  -0.36599999829909186 LUMO:  -0.3646991892535997
Fermi energy:      -0.3659810689
[2.0000e+00 1.9990e+00 1.9888e+00 1.9870e+00 1.9615e+00 1.9611e+00
 1.9390e+00 1.0089e+00 1.0019e+00 8.7251e-01 5.9299e-01 5.9097e-01
 9.6139e-02 2.3174e-04]
entropy correction =  -0.03885881760733351
cycle= 12 E= -13.4007406070207  delta_E= -5.4e-06  |g|= 0.00194  |ddm|= 0.0124
HOMO:  -0.36606902221509185 LUMO:  -0.3647170421833569
Fermi energy:      -0.3660105506
[2.0000e+00 1.9990e+00 1.9889e+00 1.9869e+00 1.9614e+00 1.9612e+00
 1.9391e+00 1.0072e+00 1.0058e+00 8.7137e-01 5.9336e-01 5.8957e-01
 9.6010e-02 2.3171e-04]
entropy correction =  -0.0388477556306515
cycle= 13 E= -13.4007456412482  delta_E= -5.03e-06  |g|= 0.000491  |ddm|= 0.00711
HOMO:  -0.3660520978449299 LUMO:  -0.36471559429316003
Fermi energy:      -0.3660012461
[2.0000e+00 1.9990e+00 1.9889e+00 1.9868e+00 1.9616e+00 1.9609e+00
 1.9390e+00 1.0065e+00 1.0051e+00 8.7214e-01 5.9336e-01 5.9020e-01
 9.6096e-02 2.3173e-04]
entropy correction =  -0.038854885895042636
cycle= 14 E= -13.4007439340597  delta_E= 1.71e-06  |g|= 0.00139  |ddm|= 0.00463
HOMO:  -0.366059578179625 LUMO:  -0.3647172222304391
Fermi energy:      -0.3660035485
[2.0000e+00 1.9990e+00 1.9889e+00 1.9869e+00 1.9614e+00 1.9611e+00
 1.9390e+00 1.0061e+00 1.0056e+00 8.7207e-01 5.9356e-01 5.8993e-01
 9.6093e-02 2.3174e-04]
entropy correction =  -0.03885432239367186
cycle= 15 E= -13.4007458113806  delta_E= -1.88e-06  |g|= 0.000338  |ddm|= 0.00364
HOMO:  -0.3660667913636173 LUMO:  -0.3647231223539044
Fermi energy:      -0.3660094434
[2.0000e+00 1.9990e+00 1.9889e+00 1.9869e+00 1.9614e+00 1.9611e+00
 1.9390e+00 1.0063e+00 1.0057e+00 8.7207e-01 5.9357e-01 5.8972e-01
 9.6096e-02 2.3182e-04]
entropy correction =  -0.03885451257251427
cycle= 16 E= -13.400745802332  delta_E= 9.05e-09  |g|= 0.000301  |ddm|= 0.001
HOMO:  -0.3660714338356118 LUMO:  -0.3647265284945185
Fermi energy:      -0.3660135223
[2.0000e+00 1.9990e+00 1.9889e+00 1.9869e+00 1.9614e+00 1.9611e+00
 1.9390e+00 1.0064e+00 1.0058e+00 8.7201e-01 5.9338e-01 5.8976e-01
 9.6092e-02 2.3183e-04]
entropy correction =  -0.03885382559506876
cycle= 17 E= -13.4007458679686  delta_E= -6.56e-08  |g|= 0.000199  |ddm|= 0.000929
HOMO:  -0.36607136644335464 LUMO:  -0.36472689457741597
Fermi energy:      -0.3660137787
[2.0000e+00 1.9990e+00 1.9889e+00 1.9869e+00 1.9614e+00 1.9611e+00
 1.9390e+00 1.0065e+00 1.0058e+00 8.7202e-01 5.9336e-01 5.8979e-01
 9.6092e-02 2.3185e-04]
entropy correction =  -0.038854113079436876
cycle= 18 E= -13.4007458542557  delta_E= 1.37e-08  |g|= 0.000236  |ddm|= 0.00066
HOMO:  -0.3660626922140001 LUMO:  -0.3647206533421494
Fermi energy:      -0.3660069477
[2.0000e+00 1.9990e+00 1.9889e+00 1.9869e+00 1.9614e+00 1.9611e+00
 1.9390e+00 1.0063e+00 1.0056e+00 8.7208e-01 5.9352e-01 5.8990e-01
 9.6093e-02 2.3182e-04]
entropy correction =  -0.03885501753316452
cycle= 19 E= -13.400745860958  delta_E= -6.7e-09  |g|= 0.000221  |ddm|= 0.000572
HOMO:  -0.36606403676189736 LUMO:  -0.36472126976379937
Fermi energy:      -0.3660078051
[2.0000e+00 1.9990e+00 1.9889e+00 1.9869e+00 1.9614e+00 1.9611e+00
 1.9390e+00 1.0063e+00 1.0056e+00 8.7205e-01 5.9351e-01 5.8988e-01
 9.6091e-02 2.3181e-04]
entropy correction =  -0.03885467360041954
cycle= 20 E= -13.400745890569  delta_E= -2.96e-08  |g|= 8.55e-05  |ddm|= 0.000439
HOMO:  -0.3660673196293254 LUMO:  -0.36472323438556165
Fermi energy:      -0.3660103770
[2.0000e+00 1.9990e+00 1.9889e+00 1.9869e+00 1.9614e+00 1.9611e+00
 1.9390e+00 1.0064e+00 1.0057e+00 8.7199e-01 5.9344e-01 5.8984e-01
 9.6087e-02 2.3181e-04]
entropy correction =  -0.03885381841288628
cycle= 21 E= -13.400745893971  delta_E= -3.4e-09  |g|= 3.86e-05  |ddm|= 0.000231
HOMO:  -0.36606890202948356 LUMO:  -0.36472381224532013
Fermi energy:      -0.3660113158
[2.0000e+00 1.9990e+00 1.9889e+00 1.9869e+00 1.9614e+00 1.9611e+00
 1.9390e+00 1.0064e+00 1.0058e+00 8.7196e-01 5.9345e-01 5.8980e-01
 9.6084e-02 2.3180e-04]
entropy correction =  -0.03885335821679585
cycle= 22 E= -13.4007458938746  delta_E= 9.64e-11  |g|= 4.2e-05  |ddm|= 0.00023
HOMO:  -0.36606746130939183 LUMO:  -0.36472305627045326
Fermi energy:      -0.3660101479
[2.0000e+00 1.9990e+00 1.9889e+00 1.9869e+00 1.9614e+00 1.9611e+00
 1.9390e+00 1.0063e+00 1.0057e+00 8.7200e-01 5.9345e-01 5.8984e-01
 9.6088e-02 2.3181e-04]
entropy correction =  -0.038853971739807
cycle= 23 E= -13.4007458954209  delta_E= -1.55e-09  |g|= 2.17e-05  |ddm|= 0.000148
HOMO:  -0.3660661193386056 LUMO:  -0.36472231256665344
Fermi energy:      -0.3660092904
[2.0000e+00 1.9990e+00 1.9889e+00 1.9869e+00 1.9614e+00 1.9611e+00
 1.9390e+00 1.0063e+00 1.0057e+00 8.7201e-01 5.9349e-01 5.8984e-01
 9.6088e-02 2.3181e-04]
entropy correction =  -0.03885411203828899
cycle= 24 E= -13.4007458876163  delta_E= 7.8e-09  |g|= 0.000107  |ddm|= 0.000198
HOMO:  -0.3660674824030875 LUMO:  -0.3647232008901795
Fermi energy:      -0.3660102607
[2.0000e+00 1.9990e+00 1.9889e+00 1.9869e+00 1.9614e+00 1.9611e+00
 1.9390e+00 1.0063e+00 1.0057e+00 8.7200e-01 5.9346e-01 5.8982e-01
 9.6088e-02 2.3182e-04]
entropy correction =  -0.03885399982193789
cycle= 25 E= -13.4007458955364  delta_E= -7.92e-09  |g|= 1.93e-05  |ddm|= 0.000162
HOMO:  -0.36606763174999596 LUMO:  -0.36472339198878134
Fermi energy:      -0.3660104844
[2.0000e+00 1.9990e+00 1.9889e+00 1.9869e+00 1.9614e+00 1.9611e+00
 1.9390e+00 1.0064e+00 1.0057e+00 8.7200e-01 5.9345e-01 5.8983e-01
 9.6088e-02 2.3182e-04]
entropy correction =  -0.038853954413275237
cycle= 26 E= -13.4007458956371  delta_E= -1.01e-10  |g|= 1.89e-05  |ddm|= 7.81e-05
HOMO:  -0.3660670026160725 LUMO:  -0.364722537230319
Fermi energy:      -0.3660095738
[2.0000e+00 1.9990e+00 1.9889e+00 1.9869e+00 1.9614e+00 1.9611e+00
 1.9390e+00 1.0063e+00 1.0057e+00 8.7200e-01 5.9348e-01 5.8983e-01
 9.6088e-02 2.3181e-04]
entropy correction =  -0.03885400933316576
Extra cycle  E= -13.4007458712225  delta_E= 2.44e-08  |g|= 0.000186  |ddm|= 0.000353
entropy correction =  -0.03885400933316576
rks_ao.ne_frozen =  0
Set gradient conv threshold to 3.16228e-05
tot grids = 190200
init E= -9.12128898946024
HOMO:  -0.18160895655985143 LUMO:  -0.17073598612720006
Fermi energy:      -0.1746225795
[2.0000e+00 2.0000e+00 2.0000e+00 2.0000e+00 1.9146e+00 1.8508e+00
 1.8500e+00 1.6045e+00 1.6035e+00 6.2980e-01 4.0786e-01 5.8434e-02
 5.6999e-02 1.1491e-02 1.1288e-02 6.9524e-04]
entropy correction =  -0.03167062238101796
cycle= 1 E= -12.4360420547619  delta_E= -3.31  |g|= 0.773  |ddm|= 5.23
HOMO:  -0.13298373137535163 LUMO:  -0.12981110796256307
Fermi energy:      -0.1289335927
[2.0000e+00 2.0000e+00 2.0000e+00 2.0000e+00 2.0000e+00 2.0000e+00
 1.9815e+00 1.3911e+00 1.3842e+00 1.0875e+00 4.9092e-02 4.6234e-02
 3.5994e-02 1.1276e-02 1.0556e-02 1.0405e-03 5.8802e-04 5.1462e-04
 2.9254e-04]
entropy correction =  -0.023678701734494233
cycle= 2 E= -12.3596723436956  delta_E= 0.0764  |g|= 0.985  |ddm|= 2.89
HOMO:  -0.2173871735111167 LUMO:  -0.20905932076183523
Fermi energy:      -0.2141844498
[2.0000e+00 2.0000e+00 2.0000e+00 2.0000e+00 1.9887e+00 1.9882e+00
 1.9671e+00 1.3123e+00 1.3098e+00 5.2810e-01 3.8918e-01 3.8642e-01
 9.7944e-02 1.5907e-02 1.5632e-02 8.4502e-04]
entropy correction =  -0.03295151465279707
cycle= 3 E= -12.7453619338865  delta_E= -0.386  |g|= 0.229  |ddm|= 1.37
HOMO:  -0.21810151584408502 LUMO:  -0.2133137143858599
Fermi energy:      -0.2158396981
[2.0000e+00 2.0000e+00 2.0000e+00 2.0000e+00 1.9301e+00 1.8299e+00
 1.8099e+00 1.2270e+00 1.2224e+00 7.5264e-01 7.4296e-01 3.5973e-01
 9.3987e-02 1.5723e-02 1.4996e-02 6.6043e-04]
entropy correction =  -0.04167730863333611
cycle= 4 E= -12.7683828030572  delta_E= -0.023  |g|= 0.0895  |ddm|= 0.545
HOMO:  -0.21826069309267307 LUMO:  -0.21349919088774658
Fermi energy:      -0.2158807652
[2.0000e+00 2.0000e+00 2.0000e+00 2.0000e+00 1.9346e+00 1.8099e+00
 1.7991e+00 1.2358e+00 1.2336e+00 7.6625e-01 7.2333e-01 3.7702e-01
 9.1125e-02 1.4811e-02 1.3846e-02 6.3689e-04]
entropy correction =  -0.04192055597182697
cycle= 5 E= -12.7573011782926  delta_E= 0.0111  |g|= 0.152  |ddm|= 0.351
HOMO:  -0.21790221209963548 LUMO:  -0.2131863291846399
Fermi energy:      -0.2156486678
[2.0000e+00 2.0000e+00 2.0000e+00 2.0000e+00 1.9334e+00 1.8204e+00
 1.7975e+00 1.2251e+00 1.2216e+00 7.5862e-01 7.4144e-01 3.8306e-01
 8.7193e-02 1.5881e-02 1.5180e-02 6.1433e-04]
entropy correction =  -0.04196311705950796
cycle= 6 E= -12.774622478777  delta_E= -0.0173  |g|= 0.0171  |ddm|= 0.243
HOMO:  -0.21769213673630486 LUMO:  -0.21295019240357216
Fermi energy:      -0.2153646952
[2.0000e+00 2.0000e+00 2.0000e+00 2.0000e+00 1.9316e+00 1.8319e+00
 1.7774e+00 1.2402e+00 1.2286e+00 7.6313e-01 7.3182e-01 3.7608e-01
 8.6834e-02 1.6404e-02 1.5441e-02 6.4333e-04]
entropy correction =  -0.041970244571356174
cycle= 7 E= -12.7741761591388  delta_E= 0.000446  |g|= 0.0316  |ddm|= 0.106
HOMO:  -0.21776400344709498 LUMO:  -0.2128167461288771
Fermi energy:      -0.2153883641
[2.0000e+00 2.0000e+00 2.0000e+00 2.0000e+00 1.9311e+00 1.8080e+00
 1.8033e+00 1.2351e+00 1.2332e+00 7.4836e-01 7.4622e-01 3.7531e-01
 8.6989e-02 1.6073e-02 1.5770e-02 6.4808e-04]
entropy correction =  -0.04197755525290181
cycle= 8 E= -12.7749550525637  delta_E= -0.000779  |g|= 0.00485  |ddm|= 0.0773
HOMO:  -0.2179182644830639 LUMO:  -0.21304456233803423
Fermi energy:      -0.2155590748
[2.0000e+00 2.0000e+00 2.0000e+00 2.0000e+00 1.9312e+00 1.8077e+00
 1.8009e+00 1.2349e+00 1.2316e+00 7.5372e-01 7.4706e-01 3.7382e-01
 8.6702e-02 1.6055e-02 1.5657e-02 6.4177e-04]
entropy correction =  -0.04200578183652012
cycle= 9 E= -12.7749249096694  delta_E= 3.01e-05  |g|= 0.00805  |ddm|= 0.018
HOMO:  -0.21797292981346808 LUMO:  -0.21311069056023332
Fermi energy:      -0.2156202679
[2.0000e+00 2.0000e+00 2.0000e+00 2.0000e+00 1.9313e+00 1.8049e+00
 1.8018e+00 1.2349e+00 1.2310e+00 7.5418e-01 7.4975e-01 3.7324e-01
 8.6584e-02 1.6025e-02 1.5653e-02 6.3943e-04]
entropy correction =  -0.04202862725972836
cycle= 10 E= -12.7749702089229  delta_E= -4.53e-05  |g|= 0.00238  |ddm|= 0.0138
HOMO:  -0.21797222144566458 LUMO:  -0.2130939676501245
Fermi energy:      -0.2156190388
[2.0000e+00 2.0000e+00 2.0000e+00 2.0000e+00 1.9313e+00 1.8046e+00
 1.8021e+00 1.2346e+00 1.2311e+00 7.5273e-01 7.5167e-01 3.7315e-01
 8.6566e-02 1.5969e-02 1.5693e-02 6.3900e-04]
entropy correction =  -0.04202932770901944
cycle= 11 E= -12.7749728950221  delta_E= -2.69e-06  |g|= 0.00174  |ddm|= 0.00738
HOMO:  -0.2179689657981148 LUMO:  -0.21308708730677753
Fermi energy:      -0.2156104862
[2.0000e+00 2.0000e+00 2.0000e+00 2.0000e+00 1.9313e+00 1.8037e+00
 1.8024e+00 1.2343e+00 1.2316e+00 7.5288e-01 7.5161e-01 3.7332e-01
 8.6556e-02 1.5951e-02 1.5721e-02 6.3876e-04]
entropy correction =  -0.04203605136034486
cycle= 12 E= -12.7749737656591  delta_E= -8.71e-07  |g|= 0.00124  |ddm|= 0.00558
HOMO:  -0.21793820151894844 LUMO:  -0.21304828365484907
Fermi energy:      -0.2155828728
[2.0000e+00 2.0000e+00 2.0000e+00 2.0000e+00 1.9313e+00 1.8048e+00
 1.8029e+00 1.2345e+00 1.2313e+00 7.5183e-01 7.5118e-01 3.7336e-01
 8.6551e-02 1.5969e-02 1.5698e-02 6.3969e-04]
entropy correction =  -0.04201547121971182
cycle= 13 E= -12.7749751336029  delta_E= -1.37e-06  |g|= 6.55e-05  |ddm|= 0.00321
HOMO:  -0.2179379846494566 LUMO:  -0.21304709775026012
Fermi energy:      -0.2155820437
[2.0000e+00 2.0000e+00 2.0000e+00 2.0000e+00 1.9313e+00 1.8046e+00
 1.8029e+00 1.2346e+00 1.2313e+00 7.5180e-01 7.5128e-01 3.7337e-01
 8.6530e-02 1.5972e-02 1.5697e-02 6.3955e-04]
entropy correction =  -0.042016871105455725
cycle= 14 E= -12.774975116243  delta_E= 1.74e-08  |g|= 0.000165  |ddm|= 0.000367
HOMO:  -0.21793750576714707 LUMO:  -0.21304688747437917
Fermi energy:      -0.2155814945
[2.0000e+00 2.0000e+00 2.0000e+00 2.0000e+00 1.9313e+00 1.8047e+00
 1.8029e+00 1.2346e+00 1.2313e+00 7.5183e-01 7.5124e-01 3.7336e-01
 8.6530e-02 1.5972e-02 1.5698e-02 6.3958e-04]
entropy correction =  -0.04201686352303942
cycle= 15 E= -12.7749751369907  delta_E= -2.07e-08  |g|= 2.52e-05  |ddm|= 0.000277
HOMO:  -0.21793868389720555 LUMO:  -0.21304870986492952
Fermi energy:      -0.2155828213
[2.0000e+00 2.0000e+00 2.0000e+00 2.0000e+00 1.9313e+00 1.8047e+00
 1.8028e+00 1.2346e+00 1.2313e+00 7.5188e-01 7.5123e-01 3.7335e-01
 8.6530e-02 1.5971e-02 1.5698e-02 6.3954e-04]
entropy correction =  -0.0420169371285426
cycle= 16 E= -12.7749751366046  delta_E= 3.86e-10  |g|= 3.57e-05  |ddm|= 0.00012
HOMO:  -0.2179387685938311 LUMO:  -0.21304866139736603
Fermi energy:      -0.2155829838
[2.0000e+00 2.0000e+00 2.0000e+00 2.0000e+00 1.9313e+00 1.8047e+00
 1.8029e+00 1.2346e+00 1.2313e+00 7.5186e-01 7.5125e-01 3.7335e-01
 8.6530e-02 1.5971e-02 1.5698e-02 6.3954e-04]
entropy correction =  -0.04201692097652808
cycle= 17 E= -12.7749751369741  delta_E= -3.7e-10  |g|= 2.98e-05  |ddm|= 0.000137
HOMO:  -0.21793869754748668 LUMO:  -0.21304858821993758
Fermi energy:      -0.2155826662
[2.0000e+00 2.0000e+00 2.0000e+00 2.0000e+00 1.9313e+00 1.8047e+00
 1.8028e+00 1.2345e+00 1.2313e+00 7.5188e-01 7.5122e-01 3.7335e-01
 8.6531e-02 1.5970e-02 1.5698e-02 6.3956e-04]
entropy correction =  -0.042016736930439016
Extra cycle  E= -12.7749751148495  delta_E= 2.21e-08  |g|= 0.00017  |ddm|= 0.000438
entropy correction =  -0.042016736930439016
scf energies:
EA (no vemb contrib.) =  -34.78961139537179
EB (no vemb contrib.) =  -24.95006015290672
W =  -59.637239917337475
P_imp change (scf - non-scf):  0.008887529566545625
P_bath change (scf - non-scf):  0.008851559148010057
|P_frag + P_env - P_ref| =  0.06904861461304274
max element of (P_frag + P_env - P_ref) =  0.003578021687284723
mo orthogonality:
[[-1.5398e-05  6.1746e-06 -2.4081e-06  1.4367e-02 -3.3718e-06 -2.2640e-05
  -3.2329e-05  9.1481e-06 -1.2572e-05 -1.4565e-04 -2.0694e-05 -3.0275e-05
   3.1301e-01  1.2018e-04 -1.2301e-04  4.6960e-01 -9.9467e-05  1.0023e-03
   2.3667e-04]
 [ 1.3554e-06 -1.3612e-05  8.3802e-03  1.7665e-05  4.7486e-06 -3.5523e-06
  -3.0189e-06 -2.0757e-04 -4.1880e-05  2.6810e-05  3.0677e-05 -2.4801e-01
   1.2717e-04  2.5749e-05 -7.9603e-06 -1.6473e-04 -1.2495e-03 -8.5200e-03
  -9.3473e-03]
 [ 2.9645e-04  1.1162e-03  6.7982e-05 -1.0692e-05  4.4915e-05  1.7378e-05
   1.4580e-05  1.9729e-02  7.7382e-03 -1.4221e-04  1.0024e-05 -2.1991e-03
   5.9887e-05  1.8768e-04 -3.7423e-05 -7.0136e-04  1.8705e-02  7.0141e-01
  -8.4444e-02]
 [ 1.0633e-03 -3.8192e-05 -6.9302e-05 -8.7125e-07  7.0496e-06  1.1613e-05
  -4.6467e-05 -7.7566e-03  1.9237e-02  1.6508e-05  7.0583e-05  1.7757e-03
  -8.5605e-05 -4.7853e-04 -6.5698e-04  5.5532e-04 -1.5093e-02 -7.1150e-02
  -8.0550e-01]
 [ 4.0193e-05  1.5107e-05 -1.3317e-05  6.5634e-05 -3.7570e-05  2.0886e-02
  -6.3383e-03  1.5065e-04  1.1468e-05 -6.6083e-02 -2.8557e-02 -1.2467e-04
   1.0611e-03 -1.8119e-01  9.1151e-01 -7.1591e-04 -5.6019e-04 -5.0730e-04
  -1.5375e-03]
 [ 8.5419e-06  9.4528e-07  6.2470e-06 -5.6188e-06 -2.6087e-05  6.2601e-03
   2.0907e-02 -3.2818e-05  1.0143e-04 -2.8684e-02  6.5875e-02 -5.8006e-05
  -8.0887e-05  9.1171e-01  1.8051e-01 -3.4018e-04 -1.3522e-03 -6.0768e-04
  -3.3601e-04]
 [-1.4104e-05  5.3573e-06  4.7976e-06  6.0979e-03 -3.3760e-06  5.1751e-05
  -3.2535e-05 -1.5542e-05 -1.1594e-05 -1.1615e-04 -1.1670e-04 -1.1822e-05
   7.7551e-01  1.4999e-04 -1.3430e-03 -5.0984e-01  3.0234e-04 -4.9439e-04
  -3.3594e-04]
 [ 2.4054e-05 -8.7707e-06 -1.1459e-05 -1.0126e-04  1.4448e-04  1.9795e-01
  -1.7276e-02  2.3370e-04 -7.3327e-05  9.4524e-01  1.9513e-01 -6.0124e-04
   2.9342e-04  9.8366e-04  7.2416e-02 -4.2887e-05  2.7012e-04  2.0326e-05
  -3.7870e-05]
 [ 3.8998e-05  3.0080e-06  2.2532e-05 -9.8518e-06 -3.2313e-05 -1.7163e-02
  -1.9719e-01  1.7831e-04  1.4161e-04 -1.9513e-01  9.4545e-01 -4.7410e-05
   1.2302e-04 -7.2148e-02  4.6030e-04  5.0617e-05 -2.3050e-04  2.0730e-04
  -2.2896e-05]
 [-1.2083e-04  1.4191e-04  5.8023e-02 -1.7657e-04  3.2224e-06  1.1758e-04
  -5.6591e-06 -1.7860e-04  1.1109e-03  5.8981e-04  1.7628e-04  9.3703e-01
  -5.6958e-05  4.5015e-05  1.9989e-04 -1.7188e-04 -1.6204e-04 -3.2060e-04
  -1.0063e-03]
 [-3.0576e-02 -5.5525e-03 -5.9711e-05  1.5424e-04  1.6808e-04 -2.5927e-05
  -2.7155e-05 -4.7126e-02  9.7154e-01  1.1555e-04 -1.2504e-04 -1.0983e-03
   5.1733e-05 -6.6374e-05 -9.0230e-05  1.9937e-05  9.4833e-04 -6.2380e-04
   1.5185e-02]
 [ 5.7469e-03 -3.1595e-02  5.3210e-05 -9.3000e-05  9.8293e-05  7.3073e-05
  -1.1882e-04  9.7194e-01  4.7073e-02 -1.9860e-04 -2.3777e-04  1.4715e-04
  -5.0385e-05  8.5253e-05 -1.2977e-04 -2.4647e-05 -6.1364e-04 -3.0401e-03
  -3.1718e-03]
 [-1.5836e-04  2.7331e-04 -6.5146e-04  7.7461e-01 -1.9823e-04  2.9719e-04
  -1.3988e-04  1.8586e-04 -1.6412e-04 -3.7737e-05 -8.9111e-05  3.2400e-04
   2.7073e-01  2.3997e-04  8.8318e-05  3.2641e-01 -2.2240e-04  2.0096e-04
   3.7783e-05]
 [ 2.3203e-03 -9.4208e-05  1.5698e-05  2.3855e-04  9.5819e-01 -2.3950e-04
   5.1468e-04 -1.8388e-04  9.3567e-05 -1.1545e-04  1.0868e-04 -3.4511e-06
  -6.0111e-06 -8.3248e-05 -9.6875e-05 -6.7805e-06 -2.0711e-04 -3.2320e-04
   8.2091e-05]]
|P_imp-P_imp_0| =  0.008887529566545625
max(P_imp-P_imp_0) =  0.0005282686122126609
|P_bath-P_bath_0| =  0.008851559148010057
max(P_bath-P_bath_0) =  0.0006528212777774864
 Subspace minimization time 0.000E+00 seconds.
 Line search           time 0.000E+00 seconds.

 Total User time 0.000E+00 seconds.

