#INFO: **** input file is /tigress/xingz/pydmfet/examples/research/Al12/dmfet/least/Al12.py ****
from pydmfet import locints, sdmfet, oep, tools, dfet_ao, proj_ao
from pydmfet.dfet_ao import dfet
from pydmfet.qcwrap.pyscf_rks_ao import rks_ao
from pyscf import gto, scf,dft, ao2mo,cc
import numpy as np
from pyscf.tools import molden, cubegen
import copy,time
from pydmfet.tools.sym import h_lattice_sym_tab

bas = 'stuttgartdz'
ecp = 'stuttgartdz'
temp = 0.005


mol = gto.Mole()
mol.atom = open('Al12.xyz').read()
mol.basis = bas
mol.ecp = ecp
mol.build(max_memory = 4000, verbose=4)

mf = rks_ao(mol,smear_sigma = temp)
mf.xc = 'pbe,pbe'
mf.max_cycle = 50
mf.scf(dm0=None)

natoms = mol.natm
impAtom = np.zeros([natoms], dtype=int)
for i in range(6):
    impAtom[i] = 1

ghost_frag = 1-impAtom
ghost_env = 1-ghost_frag

mol_frag = gto.Mole()
mol_frag.atom = tools.add_ghost(mol.atom, ghost_frag)
mol_frag.basis = bas
mol_frag.ecp = ecp
mol_frag.build(max_memory = 4000,verbose = 4)

mol_env = gto.Mole()
mol_env.atom = tools.add_ghost(mol.atom, ghost_env)
mol_env.basis =  bas
mol_env.ecp = ecp
mol_env.build(max_memory = 4000,verbose = 4)

Ne_frag = 18
Ne_env = 18

boundary_atoms = None
boundary_atoms2 =None

umat = None
umat = np.load("umat.npy")

params = oep.OEPparams(algorithm = 'leastsq', opt_method = 'L-BFGS-B', diffP_tol=1e-3, outer_maxit = 10)
params.options['ftol'] = 1e-10
params.options['gtol'] = 1e-4
params.options['maxiter'] = 100
params.options['svd_thresh'] = 1e-5

theDMFET = dfet.DFET(mf, mol_frag, mol_env,Ne_frag,Ne_env,\
                     boundary_atoms=boundary_atoms, boundary_atoms2=boundary_atoms2,umat = umat,\
                     oep_params=params, smear_sigma=temp, ecw_method = 'hf',mf_method = mf.xc, plot_dens=True)

umat = theDMFET.embedding_potential()
#INFO: ******************** input file end ********************


System: uname_result(system='Linux', node='tiger-i26c1n1', release='3.10.0-957.27.2.el7.x86_64', version='#1 SMP Tue Jul 30 11:12:20 EDT 2019', machine='x86_64', processor='x86_64')  Threads 40
Python 3.7.0 (default, Jun 28 2018, 13:15:42) 
[GCC 7.2.0]
numpy 1.16.4  scipy 1.4.0.dev0+0f78e0f
Date: Wed Aug 21 00:48:03 2019
PySCF version 1.5
PySCF path  /home/xingz/.local/lib/python3.7/site-packages/pyscf

[CONFIG] conf_file None
[INPUT] verbose = 4
[INPUT] num. atoms = 12
[INPUT] num. electrons = 36
[INPUT] charge = 0
[INPUT] spin (= nelec alpha-beta = 2S) = 0
[INPUT] symmetry False subgroup None
[INPUT] Mole.unit = angstrom
[INPUT]  1 Al     8.092960000000   4.046480000000  -0.000000000000 AA   15.293477937060   7.646738968530  -0.000000000000 Bohr
[INPUT]  2 Al     8.092960000000   6.069720000000  -2.023240000000 AA   15.293477937060  11.470108452795  -3.823369484265 Bohr
[INPUT]  3 Al    10.116200000000   4.046480000000  -2.023240000000 AA   19.116847421325   7.646738968530  -3.823369484265 Bohr
[INPUT]  4 Al     6.069720000000   4.046480000000  -2.023240000000 AA   11.470108452795   7.646738968530  -3.823369484265 Bohr
[INPUT]  5 Al     8.092960000000   2.023240000000  -2.023240000000 AA   15.293477937060   3.823369484265  -3.823369484265 Bohr
[INPUT]  6 Al     8.092960000000   4.046480000000  -4.046480000000 AA   15.293477937060   7.646738968530  -7.646738968530 Bohr
[INPUT]  7 Al     6.069720000000   6.069720000000  -0.000000000000 AA   11.470108452795  11.470108452795  -0.000000000000 Bohr
[INPUT]  8 Al    10.116200000000   2.023240000000  -0.000000000000 AA   19.116847421325   3.823369484265  -0.000000000000 Bohr
[INPUT]  9 Al    10.116200000000   6.069720000000  -4.046480000000 AA   19.116847421325  11.470108452795  -7.646738968530 Bohr
[INPUT] 10 Al     6.069720000000   2.023240000000  -0.000000000000 AA   11.470108452795   3.823369484265  -0.000000000000 Bohr
[INPUT] 11 Al     6.069720000000   6.069720000000  -4.046480000000 AA   11.470108452795  11.470108452795  -7.646738968530 Bohr
[INPUT] 12 Al    10.116200000000   2.023240000000  -4.046480000000 AA   19.116847421325   3.823369484265  -7.646738968530 Bohr

nuclear repulsion = 84.8573926838199
number of shells = 48
number of NR pGTOs = 192
number of NR cGTOs = 96
basis = stuttgartdz
ecp = stuttgartdz
CPU time:         3.94
rks_ao.ne_frozen =  0


******** <class 'pydmfet.qcwrap.pyscf_rks_ao.rks_ao'> flags ********
method = rks_ao-RKS-RHF
initial guess = minao
damping factor = 0
level shift factor = 0
DIIS = <class 'pyscf.scf.diis.CDIIS'>
DIIS start cycle = 1
DIIS space = 8
SCF tol = 1e-09
SCF gradient tol = None
max. SCF cycles = 50
direct_scf = False
chkfile to save SCF result = /tmp/tmpy52flkld
max_memory 4000 MB (current use 69 MB)
XC functionals = pbe,pbe
small_rho_cutoff = 1e-07
radial grids: 
    Treutler-Ahlrichs (JCP 102, 346 (M4)) radial grids
    
becke partition: Becke, JCP, 88, 2547 (1988)
pruning grids: <function nwchem_prune at 0x2b700efc3400>
grids dens level: 3
symmetrized grids: False
atomic radii adjust function: <function treutler_atomic_radii_adjust at 0x2b700efc3378>
Set gradient conv threshold to 3.16228e-05
tot grids = 220800
init E= -21.344783658299
HOMO:  -0.09640875247665476 LUMO:  -0.08910626015728029
Fermi energy:      -0.0887572500
[2.     2.     2.     2.     2.     2.     2.     2.     2.     2.
 2.     2.     1.9995 1.9096 1.7557 1.7557 1.6441 1.6441 1.0349 0.2163
 0.02   0.02  ]
entropy correction =  -0.03012640112055563
cycle= 1 E= -24.0317931623435  delta_E= -2.69  |g|= 0.653  |ddm|= 6.67
HOMO:  -0.2311626812140645 LUMO:  -0.2311626812140641
Fermi energy:      -0.2358858179
[2.     2.     2.     2.     2.     2.     2.     2.     2.     2.
 2.     2.     2.     1.9989 1.9981 1.9981 1.9963 0.5599 0.5599 0.4393
 0.4393 0.0101]
entropy correction =  -0.023039333382987966
cycle= 2 E= -22.7589412389297  delta_E= 1.27  |g|= 1.61  |ddm|= 4.31
HOMO:  -0.1864794289436321 LUMO:  -0.1755152171500886
Fermi energy:      -0.1766937420
[2.     2.     2.     2.     2.     2.     2.     2.     2.     2.
 2.     2.     1.9995 1.9702 1.7766 1.7766 1.7524 1.7524 0.8827 0.0807
 0.0044 0.0044]
entropy correction =  -0.024152976140203966
cycle= 3 E= -24.1577819139597  delta_E= -1.4  |g|= 0.177  |ddm|= 3.48
HOMO:  -0.16723309364643205 LUMO:  -0.16668219584287028
Fermi energy:      -0.1626445453
[2.     2.     2.     2.     2.     2.     2.     2.     2.     2.
 2.     2.     1.9999 1.922  1.8341 1.8341 1.4292 1.4292 1.3832 0.1196
 0.0244 0.0244]
entropy correction =  -0.0290923889820862
cycle= 4 E= -24.1758252803637  delta_E= -0.018  |g|= 0.0887  |ddm|= 0.83
HOMO:  -0.1691327019218631 LUMO:  -0.16476599946426324
Fermi energy:      -0.1627185946
[2.     2.     2.     2.     2.     2.     2.     2.     2.     2.
 2.     2.     1.9998 1.9364 1.7964 1.7964 1.5659 1.5659 1.2019 0.1144
 0.0115 0.0115]
entropy correction =  -0.028086976616489272
cycle= 5 E= -24.1831548018885  delta_E= -0.00733  |g|= 0.00917  |ddm|= 0.293
HOMO:  -0.17049749264549235 LUMO:  -0.16611814497689367
Fermi energy:      -0.1641279001
[2.     2.     2.     2.     2.     2.     2.     2.     2.     2.
 2.     2.     1.9999 1.9389 1.802  1.802  1.5628 1.5628 1.1964 0.1103
 0.0124 0.0124]
entropy correction =  -0.02795963123735475
cycle= 6 E= -24.1832343076201  delta_E= -7.95e-05  |g|= 0.00113  |ddm|= 0.0422
HOMO:  -0.17058528293726988 LUMO:  -0.16630331880958207
Fermi energy:      -0.1642599608
[2.     2.     2.     2.     2.     2.     2.     2.     2.     2.
 2.     2.     1.9999 1.9387 1.8025 1.8025 1.5598 1.5598 1.2015 0.1105
 0.0124 0.0124]
entropy correction =  -0.027983238069822357
cycle= 7 E= -24.1832355424437  delta_E= -1.23e-06  |g|= 0.000895  |ddm|= 0.00747
HOMO:  -0.17054731833014786 LUMO:  -0.16621690815491333
Fermi energy:      -0.1641961314
[2.     2.     2.     2.     2.     2.     2.     2.     2.     2.
 2.     2.     1.9999 1.9385 1.8018 1.8018 1.5616 1.5616 1.1994 0.1109
 0.0124 0.0124]
entropy correction =  -0.027989016591825622
cycle= 8 E= -24.1832361917862  delta_E= -6.49e-07  |g|= 7.71e-05  |ddm|= 0.00356
HOMO:  -0.17053508515506244 LUMO:  -0.1662114728203204
Fermi energy:      -0.1641878969
[2.     2.     2.     2.     2.     2.     2.     2.     2.     2.
 2.     2.     1.9999 1.9385 1.8019 1.8019 1.5613 1.5613 1.1996 0.1108
 0.0124 0.0124]
entropy correction =  -0.027988384491849545
cycle= 9 E= -24.1832362012561  delta_E= -9.47e-09  |g|= 2.11e-05  |ddm|= 0.000544
HOMO:  -0.17053203701214792 LUMO:  -0.1662077727304543
Fermi energy:      -0.1641845192
[2.     2.     2.     2.     2.     2.     2.     2.     2.     2.
 2.     2.     1.9999 1.9385 1.8019 1.8019 1.5613 1.5613 1.1996 0.1108
 0.0124 0.0124]
entropy correction =  -0.02798810871278147
cycle= 10 E= -24.1832362015524  delta_E= -2.96e-10  |g|= 3.03e-06  |ddm|= 6.6e-05
HOMO:  -0.17053311709240754 LUMO:  -0.16620885001250346
Fermi energy:      -0.1641855888
[2.     2.     2.     2.     2.     2.     2.     2.     2.     2.
 2.     2.     1.9999 1.9385 1.8019 1.8019 1.5613 1.5613 1.1996 0.1108
 0.0124 0.0124]
entropy correction =  -0.027988118840462897
Extra cycle  E= -24.1832362015501  delta_E= 2.27e-12  |g|= 3.71e-06  |ddm|= 1.75e-05
converged SCF energy = -24.1832362015501
#INFO: **** input file is /tigress/xingz/pydmfet/examples/research/Al12/dmfet/least/Al12.py ****
from pydmfet import locints, sdmfet, oep, tools, dfet_ao, proj_ao
from pydmfet.dfet_ao import dfet
from pydmfet.qcwrap.pyscf_rks_ao import rks_ao
from pyscf import gto, scf,dft, ao2mo,cc
import numpy as np
from pyscf.tools import molden, cubegen
import copy,time
from pydmfet.tools.sym import h_lattice_sym_tab

bas = 'stuttgartdz'
ecp = 'stuttgartdz'
temp = 0.005


mol = gto.Mole()
mol.atom = open('Al12.xyz').read()
mol.basis = bas
mol.ecp = ecp
mol.build(max_memory = 4000, verbose=4)

mf = rks_ao(mol,smear_sigma = temp)
mf.xc = 'pbe,pbe'
mf.max_cycle = 50
mf.scf(dm0=None)

natoms = mol.natm
impAtom = np.zeros([natoms], dtype=int)
for i in range(6):
    impAtom[i] = 1

ghost_frag = 1-impAtom
ghost_env = 1-ghost_frag

mol_frag = gto.Mole()
mol_frag.atom = tools.add_ghost(mol.atom, ghost_frag)
mol_frag.basis = bas
mol_frag.ecp = ecp
mol_frag.build(max_memory = 4000,verbose = 4)

mol_env = gto.Mole()
mol_env.atom = tools.add_ghost(mol.atom, ghost_env)
mol_env.basis =  bas
mol_env.ecp = ecp
mol_env.build(max_memory = 4000,verbose = 4)

Ne_frag = 18
Ne_env = 18

boundary_atoms = None
boundary_atoms2 =None

umat = None
umat = np.load("umat.npy")

params = oep.OEPparams(algorithm = 'leastsq', opt_method = 'L-BFGS-B', diffP_tol=1e-3, outer_maxit = 10)
params.options['ftol'] = 1e-10
params.options['gtol'] = 1e-4
params.options['maxiter'] = 100
params.options['svd_thresh'] = 1e-5

theDMFET = dfet.DFET(mf, mol_frag, mol_env,Ne_frag,Ne_env,\
                     boundary_atoms=boundary_atoms, boundary_atoms2=boundary_atoms2,umat = umat,\
                     oep_params=params, smear_sigma=temp, ecw_method = 'hf',mf_method = mf.xc, plot_dens=True)

umat = theDMFET.embedding_potential()
#INFO: ******************** input file end ********************


System: uname_result(system='Linux', node='tiger-i26c1n1', release='3.10.0-957.27.2.el7.x86_64', version='#1 SMP Tue Jul 30 11:12:20 EDT 2019', machine='x86_64', processor='x86_64')  Threads 40
Python 3.7.0 (default, Jun 28 2018, 13:15:42) 
[GCC 7.2.0]
numpy 1.16.4  scipy 1.4.0.dev0+0f78e0f
Date: Wed Aug 21 00:48:16 2019
PySCF version 1.5
PySCF path  /home/xingz/.local/lib/python3.7/site-packages/pyscf

[CONFIG] conf_file None
[INPUT] verbose = 4
[INPUT] num. atoms = 12
[INPUT] num. electrons = 18
[INPUT] charge = 0
[INPUT] spin (= nelec alpha-beta = 2S) = 0
[INPUT] symmetry False subgroup None
[INPUT] Mole.unit = angstrom
[INPUT]  1 Al     8.092960000000   4.046480000000  -0.000000000000 AA   15.293477937060   7.646738968530  -0.000000000000 Bohr
[INPUT]  2 Al     8.092960000000   6.069720000000  -2.023240000000 AA   15.293477937060  11.470108452795  -3.823369484265 Bohr
[INPUT]  3 Al    10.116200000000   4.046480000000  -2.023240000000 AA   19.116847421325   7.646738968530  -3.823369484265 Bohr
[INPUT]  4 Al     6.069720000000   4.046480000000  -2.023240000000 AA   11.470108452795   7.646738968530  -3.823369484265 Bohr
[INPUT]  5 Al     8.092960000000   2.023240000000  -2.023240000000 AA   15.293477937060   3.823369484265  -3.823369484265 Bohr
[INPUT]  6 Al     8.092960000000   4.046480000000  -4.046480000000 AA   15.293477937060   7.646738968530  -7.646738968530 Bohr
[INPUT]  7 GHOST-Al   6.069720000000   6.069720000000  -0.000000000000 AA   11.470108452795  11.470108452795  -0.000000000000 Bohr
[INPUT]  8 GHOST-Al  10.116200000000   2.023240000000  -0.000000000000 AA   19.116847421325   3.823369484265  -0.000000000000 Bohr
[INPUT]  9 GHOST-Al  10.116200000000   6.069720000000  -4.046480000000 AA   19.116847421325  11.470108452795  -7.646738968530 Bohr
[INPUT] 10 GHOST-Al   6.069720000000   2.023240000000  -0.000000000000 AA   11.470108452795   3.823369484265  -0.000000000000 Bohr
[INPUT] 11 GHOST-Al   6.069720000000   6.069720000000  -4.046480000000 AA   11.470108452795  11.470108452795  -7.646738968530 Bohr
[INPUT] 12 GHOST-Al  10.116200000000   2.023240000000  -4.046480000000 AA   19.116847421325   3.823369484265  -7.646738968530 Bohr

nuclear repulsion = 23.5047992975816
number of shells = 48
number of NR pGTOs = 192
number of NR cGTOs = 96
basis = stuttgartdz
ecp = stuttgartdz
CPU time:       341.55
#INFO: **** input file is /tigress/xingz/pydmfet/examples/research/Al12/dmfet/least/Al12.py ****
from pydmfet import locints, sdmfet, oep, tools, dfet_ao, proj_ao
from pydmfet.dfet_ao import dfet
from pydmfet.qcwrap.pyscf_rks_ao import rks_ao
from pyscf import gto, scf,dft, ao2mo,cc
import numpy as np
from pyscf.tools import molden, cubegen
import copy,time
from pydmfet.tools.sym import h_lattice_sym_tab

bas = 'stuttgartdz'
ecp = 'stuttgartdz'
temp = 0.005


mol = gto.Mole()
mol.atom = open('Al12.xyz').read()
mol.basis = bas
mol.ecp = ecp
mol.build(max_memory = 4000, verbose=4)

mf = rks_ao(mol,smear_sigma = temp)
mf.xc = 'pbe,pbe'
mf.max_cycle = 50
mf.scf(dm0=None)

natoms = mol.natm
impAtom = np.zeros([natoms], dtype=int)
for i in range(6):
    impAtom[i] = 1

ghost_frag = 1-impAtom
ghost_env = 1-ghost_frag

mol_frag = gto.Mole()
mol_frag.atom = tools.add_ghost(mol.atom, ghost_frag)
mol_frag.basis = bas
mol_frag.ecp = ecp
mol_frag.build(max_memory = 4000,verbose = 4)

mol_env = gto.Mole()
mol_env.atom = tools.add_ghost(mol.atom, ghost_env)
mol_env.basis =  bas
mol_env.ecp = ecp
mol_env.build(max_memory = 4000,verbose = 4)

Ne_frag = 18
Ne_env = 18

boundary_atoms = None
boundary_atoms2 =None

umat = None
umat = np.load("umat.npy")

params = oep.OEPparams(algorithm = 'leastsq', opt_method = 'L-BFGS-B', diffP_tol=1e-3, outer_maxit = 10)
params.options['ftol'] = 1e-10
params.options['gtol'] = 1e-4
params.options['maxiter'] = 100
params.options['svd_thresh'] = 1e-5

theDMFET = dfet.DFET(mf, mol_frag, mol_env,Ne_frag,Ne_env,\
                     boundary_atoms=boundary_atoms, boundary_atoms2=boundary_atoms2,umat = umat,\
                     oep_params=params, smear_sigma=temp, ecw_method = 'hf',mf_method = mf.xc, plot_dens=True)

umat = theDMFET.embedding_potential()
#INFO: ******************** input file end ********************


System: uname_result(system='Linux', node='tiger-i26c1n1', release='3.10.0-957.27.2.el7.x86_64', version='#1 SMP Tue Jul 30 11:12:20 EDT 2019', machine='x86_64', processor='x86_64')  Threads 40
Python 3.7.0 (default, Jun 28 2018, 13:15:42) 
[GCC 7.2.0]
numpy 1.16.4  scipy 1.4.0.dev0+0f78e0f
Date: Wed Aug 21 00:48:16 2019
PySCF version 1.5
PySCF path  /home/xingz/.local/lib/python3.7/site-packages/pyscf

[CONFIG] conf_file None
[INPUT] verbose = 4
[INPUT] num. atoms = 12
[INPUT] num. electrons = 18
[INPUT] charge = 0
[INPUT] spin (= nelec alpha-beta = 2S) = 0
[INPUT] symmetry False subgroup None
[INPUT] Mole.unit = angstrom
[INPUT]  1 GHOST-Al   8.092960000000   4.046480000000  -0.000000000000 AA   15.293477937060   7.646738968530  -0.000000000000 Bohr
[INPUT]  2 GHOST-Al   8.092960000000   6.069720000000  -2.023240000000 AA   15.293477937060  11.470108452795  -3.823369484265 Bohr
[INPUT]  3 GHOST-Al  10.116200000000   4.046480000000  -2.023240000000 AA   19.116847421325   7.646738968530  -3.823369484265 Bohr
[INPUT]  4 GHOST-Al   6.069720000000   4.046480000000  -2.023240000000 AA   11.470108452795   7.646738968530  -3.823369484265 Bohr
[INPUT]  5 GHOST-Al   8.092960000000   2.023240000000  -2.023240000000 AA   15.293477937060   3.823369484265  -3.823369484265 Bohr
[INPUT]  6 GHOST-Al   8.092960000000   4.046480000000  -4.046480000000 AA   15.293477937060   7.646738968530  -7.646738968530 Bohr
[INPUT]  7 Al     6.069720000000   6.069720000000  -0.000000000000 AA   11.470108452795  11.470108452795  -0.000000000000 Bohr
[INPUT]  8 Al    10.116200000000   2.023240000000  -0.000000000000 AA   19.116847421325   3.823369484265  -0.000000000000 Bohr
[INPUT]  9 Al    10.116200000000   6.069720000000  -4.046480000000 AA   19.116847421325  11.470108452795  -7.646738968530 Bohr
[INPUT] 10 Al     6.069720000000   2.023240000000  -0.000000000000 AA   11.470108452795   3.823369484265  -0.000000000000 Bohr
[INPUT] 11 Al     6.069720000000   6.069720000000  -4.046480000000 AA   11.470108452795  11.470108452795  -7.646738968530 Bohr
[INPUT] 12 Al    10.116200000000   2.023240000000  -4.046480000000 AA   19.116847421325   3.823369484265  -7.646738968530 Bohr

nuclear repulsion = 14.0938802665721
number of shells = 48
number of NR pGTOs = 192
number of NR cGTOs = 96
basis = stuttgartdz
ecp = stuttgartdz
CPU time:       341.94


******** <class 'pydmfet.dfet_ao.scf.EmbedSCF'> flags ********
method = EmbedSCF-RKS-RHF
initial guess = minao
damping factor = 0
level shift factor = 0
DIIS = <class 'pyscf.scf.diis.CDIIS'>
DIIS start cycle = 1
DIIS space = 8
SCF tol = 1e-09
SCF gradient tol = None
max. SCF cycles = 50
direct_scf = False
chkfile to save SCF result = /tmp/tmp1w127wcb
max_memory 4000 MB (current use 574 MB)
XC functionals = pbe,pbe
small_rho_cutoff = 1e-07
radial grids: 
    Treutler-Ahlrichs (JCP 102, 346 (M4)) radial grids
    
becke partition: Becke, JCP, 88, 2547 (1988)
pruning grids: <function nwchem_prune at 0x2b700efc3400>
grids dens level: 3
symmetrized grids: False
atomic radii adjust function: <function treutler_atomic_radii_adjust at 0x2b700efc3378>
Set gradient conv threshold to 3.16228e-05
tot grids = 190200
init E= -9.26904788429655
HOMO: -0.24146081232055006 LUMO: -0.23876769074942286
mo_energy:
[-0.3674 -0.2681 -0.2658 -0.2656 -0.2595 -0.2593 -0.2579 -0.2415 -0.2415
 -0.2388 -0.2381 -0.231  -0.2299 -0.2167]
e_fermi =  -0.24069420036774267
[2.    1.992 1.987 1.986 1.955 1.953 1.938 1.079 1.077 0.81  0.747 0.254
 0.207 0.016]
entropy correction =  -0.0394154401862756
cycle= 1 E= -12.9172287378977  delta_E= -3.65  |g|= 0.857  |ddm|= 4.91
HOMO: -0.49528008082256175 LUMO: -0.4462449003935181
mo_energy:
[-0.866 -0.673 -0.616 -0.616 -0.537 -0.527 -0.526 -0.495 -0.495 -0.446
 -0.442 -0.442 -0.43  -0.424]
e_fermi =  -0.47062001455164465
[2.    2.    2.    2.    2.    2.    2.    1.986 1.986 0.015 0.006 0.006]
entropy correction =  -0.0017358661778231613
cycle= 2 E= -12.826916743961  delta_E= 0.0903  |g|= 1.08  |ddm|=  3.4
HOMO: -0.3817208192445183 LUMO: -0.3706654106407515
mo_energy:
[-0.586 -0.442 -0.416 -0.415 -0.407 -0.401 -0.401 -0.382 -0.382 -0.371
 -0.371 -0.37  -0.361 -0.333]
e_fermi =  -0.3775789277189254
[2.    2.    1.999 1.999 1.994 1.983 1.983 1.399 1.392 0.401 0.397 0.38
 0.073]
entropy correction =  -0.02994662500053529
cycle= 3 E= -13.3583347332312  delta_E= -0.531  |g|= 0.218  |ddm|= 1.82
HOMO: -0.3701300712275211 LUMO: -0.3700413042861041
mo_energy:
[-0.555 -0.405 -0.4   -0.4   -0.391 -0.389 -0.385 -0.371 -0.37  -0.37
 -0.365 -0.365 -0.357 -0.326]
e_fermi =  -0.37023967571350097
[2.    1.998 1.995 1.995 1.967 1.956 1.9   1.035 0.989 0.98  0.539 0.521
 0.125]
entropy correction =  -0.039034119035053355
cycle= 4 E= -13.3895175182334  delta_E= -0.0312  |g|= 0.084  |ddm|= 0.789
HOMO: -0.3659343901227624 LUMO: -0.36446697297240827
mo_energy:
[-0.549 -0.406 -0.395 -0.392 -0.387 -0.386 -0.384 -0.367 -0.366 -0.364
 -0.362 -0.361 -0.351 -0.321]
e_fermi =  -0.3661056252118801
[2.    1.999 1.994 1.989 1.972 1.96  1.941 1.072 0.983 0.838 0.627 0.524
 0.101]
entropy correction =  -0.038243600247733954
cycle= 5 E= -13.3584408192495  delta_E= 0.0311  |g|= 0.233  |ddm|= 0.521
HOMO: -0.3653328333263091 LUMO: -0.36479742132277937
mo_energy:
[-0.549 -0.406 -0.393 -0.391 -0.387 -0.386 -0.384 -0.366 -0.365 -0.365
 -0.362 -0.361 -0.351 -0.32 ]
e_fermi =  -0.36581672147006655
[2.    1.999 1.992 1.988 1.97  1.962 1.947 0.998 0.952 0.898 0.616 0.577
 0.101]
entropy correction =  -0.03853338002167927
cycle= 6 E= -13.3947019071985  delta_E= -0.0363  |g|= 0.055  |ddm|= 0.381
HOMO: -0.36605709283467064 LUMO: -0.3652607806999027
mo_energy:
[-0.549 -0.407 -0.393 -0.393 -0.387 -0.385 -0.384 -0.367 -0.366 -0.365
 -0.362 -0.362 -0.351 -0.321]
e_fermi =  -0.36635263345431424
[2.    1.999 1.991 1.99  1.971 1.956 1.946 1.048 0.97  0.891 0.582 0.559
 0.095]
entropy correction =  -0.03828815078625357
cycle= 7 E= -13.3940074013089  delta_E= 0.000695  |g|= 0.0591  |ddm|= 0.25
HOMO: -0.36758675243096495 LUMO: -0.3654272747023944
mo_energy:
[-0.55  -0.407 -0.394 -0.394 -0.387 -0.386 -0.385 -0.368 -0.368 -0.365
 -0.363 -0.362 -0.352 -0.322]
e_fermi =  -0.36713489890872625
[2.    1.999 1.991 1.991 1.963 1.959 1.941 1.058 1.045 0.831 0.572 0.558
 0.091]
entropy correction =  -0.03823694312315272
cycle= 8 E= -13.3954435664399  delta_E= -0.00144  |g|= 0.0512  |ddm|= 0.166
HOMO: -0.36753263943260894 LUMO: -0.3653903846563183
mo_energy:
[-0.55  -0.406 -0.394 -0.394 -0.387 -0.387 -0.385 -0.368 -0.368 -0.365
 -0.362 -0.362 -0.352 -0.322]
e_fermi =  -0.3670812959281303
[2.    1.999 1.992 1.99  1.962 1.96  1.941 1.05  1.045 0.833 0.571 0.566
 0.092]
entropy correction =  -0.038314795905062364
cycle= 9 E= -13.3970396085988  delta_E= -0.0016  |g|= 0.019  |ddm|= 0.0855
HOMO: -0.3666128513342668 LUMO: -0.36490240257381007
mo_energy:
[-0.548 -0.405 -0.393 -0.392 -0.386 -0.386 -0.384 -0.367 -0.367 -0.365
 -0.362 -0.362 -0.351 -0.321]
e_fermi =  -0.3663714789896994
[2.    1.999 1.991 1.989 1.962 1.961 1.938 1.029 1.024 0.854 0.583 0.578
 0.093]
entropy correction =  -0.03858344385362059
cycle= 10 E= -13.3968342078176  delta_E= 0.000205  |g|= 0.0273  |ddm|= 0.0644
HOMO: -0.3657022199407108 LUMO: -0.3645340771731109
mo_energy:
[-0.547 -0.404 -0.392 -0.391 -0.386 -0.385 -0.383 -0.366 -0.366 -0.365
 -0.362 -0.361 -0.351 -0.321]
e_fermi =  -0.3657504511387862
[2.    1.999 1.99  1.988 1.963 1.962 1.937 1.001 0.995 0.879 0.6   0.591
 0.096]
entropy correction =  -0.038829997960870104
cycle= 11 E= -13.3973431705927  delta_E= -0.000509  |g|= 0.00333  |ddm|= 0.0567
HOMO: -0.3657338248971742 LUMO: -0.364495139301201
mo_energy:
[-0.547 -0.404 -0.392 -0.392 -0.386 -0.385 -0.383 -0.366 -0.366 -0.364
 -0.361 -0.361 -0.351 -0.321]
e_fermi =  -0.36577696424743705
[2.    1.999 1.99  1.988 1.963 1.961 1.938 1.01  0.996 0.873 0.595 0.591
 0.096]
entropy correction =  -0.03877561668404427
cycle= 12 E= -13.3973203651054  delta_E= 2.28e-05  |g|= 0.00526  |ddm|= 0.0231
HOMO: -0.3658625079114261 LUMO: -0.36453105207546005
mo_energy:
[-0.547 -0.404 -0.392 -0.392 -0.386 -0.386 -0.383 -0.366 -0.366 -0.365
 -0.362 -0.361 -0.351 -0.321]
e_fermi =  -0.3658340990802244
[2.    1.999 1.99  1.988 1.963 1.962 1.938 1.007 1.003 0.87  0.596 0.588
 0.095]
entropy correction =  -0.03875593239559835
cycle= 13 E= -13.3973517224742  delta_E= -3.14e-05  |g|= 0.00168  |ddm|= 0.0183
HOMO: -0.36585003656506226 LUMO: -0.36451555602284774
mo_energy:
[-0.547 -0.404 -0.392 -0.391 -0.386 -0.385 -0.383 -0.366 -0.366 -0.365
 -0.362 -0.361 -0.351 -0.321]
e_fermi =  -0.36581299650347265
[2.    1.999 1.99  1.988 1.963 1.962 1.938 1.004 1.004 0.871 0.596 0.589
 0.096]
entropy correction =  -0.03876032185236299
cycle= 14 E= -13.3973505738849  delta_E= 1.15e-06  |g|= 0.00236  |ddm|= 0.00743
HOMO: -0.36585069483025856 LUMO: -0.36451698615026173
mo_energy:
[-0.547 -0.404 -0.392 -0.391 -0.386 -0.385 -0.383 -0.366 -0.366 -0.365
 -0.362 -0.361 -0.351 -0.321]
e_fermi =  -0.3658131248913843
[2.    1.999 1.99  1.988 1.963 1.962 1.938 1.004 1.004 0.871 0.596 0.589
 0.096]
entropy correction =  -0.03876234196761192
cycle= 15 E= -13.3973542907745  delta_E= -3.72e-06  |g|= 0.000865  |ddm|= 0.00456
HOMO: -0.3658607039410098 LUMO: -0.3645372931370568
mo_energy:
[-0.547 -0.404 -0.392 -0.391 -0.386 -0.385 -0.383 -0.366 -0.366 -0.365
 -0.362 -0.361 -0.351 -0.321]
e_fermi =  -0.36583246715215795
[2.    1.999 1.99  1.988 1.963 1.961 1.938 1.006 1.003 0.871 0.597 0.588
 0.096]
entropy correction =  -0.03876327496584527
cycle= 16 E= -13.3973521419774  delta_E= 2.15e-06  |g|= 0.00169  |ddm|= 0.00514
HOMO: -0.36587686319847096 LUMO: -0.364539299381934
mo_energy:
[-0.547 -0.404 -0.392 -0.391 -0.386 -0.385 -0.383 -0.366 -0.366 -0.365
 -0.362 -0.361 -0.351 -0.321]
e_fermi =  -0.3658351626177238
[2.    1.999 1.99  1.988 1.963 1.962 1.938 1.005 1.004 0.871 0.596 0.588
 0.096]
entropy correction =  -0.03876292128079375
cycle= 17 E= -13.3973545813752  delta_E= -2.44e-06  |g|= 0.000672  |ddm|= 0.00429
HOMO: -0.36590226517892366 LUMO: -0.36455861377808796
mo_energy:
[-0.547 -0.404 -0.392 -0.392 -0.386 -0.386 -0.383 -0.366 -0.366 -0.365
 -0.362 -0.361 -0.351 -0.321]
e_fermi =  -0.36585553028335865
[2.    1.999 1.99  1.988 1.963 1.962 1.938 1.005 1.005 0.871 0.596 0.588
 0.096]
entropy correction =  -0.038762164785899514
cycle= 18 E= -13.397354431154  delta_E= 1.5e-07  |g|= 0.00076  |ddm|= 0.00237
HOMO: -0.36587666606037045 LUMO: -0.3645400404598238
mo_energy:
[-0.547 -0.404 -0.392 -0.391 -0.386 -0.385 -0.383 -0.366 -0.366 -0.365
 -0.362 -0.361 -0.351 -0.321]
e_fermi =  -0.3658353025950063
[2.    1.999 1.99  1.988 1.963 1.962 1.938 1.005 1.004 0.871 0.596 0.588
 0.096]
entropy correction =  -0.03876403662407169
cycle= 19 E= -13.3973547500526  delta_E= -3.19e-07  |g|= 0.000466  |ddm|= 0.00174
HOMO: -0.3658661151351823 LUMO: -0.36453347791628987
mo_energy:
[-0.547 -0.404 -0.392 -0.391 -0.386 -0.385 -0.383 -0.366 -0.366 -0.365
 -0.362 -0.361 -0.351 -0.321]
e_fermi =  -0.3658273189839928
[2.    1.999 1.99  1.988 1.963 1.962 1.938 1.004 1.004 0.871 0.596 0.589
 0.096]
entropy correction =  -0.03876590231671968
cycle= 20 E= -13.3973548810377  delta_E= -1.31e-07  |g|= 0.000146  |ddm|= 0.00096
HOMO: -0.3658748923354521 LUMO: -0.36453807477939926
mo_energy:
[-0.547 -0.404 -0.392 -0.391 -0.386 -0.385 -0.383 -0.366 -0.366 -0.365
 -0.362 -0.361 -0.351 -0.321]
e_fermi =  -0.3658336385277212
[2.    1.999 1.99  1.988 1.963 1.962 1.938 1.004 1.004 0.871 0.596 0.589
 0.096]
entropy correction =  -0.03876343348162717
cycle= 21 E= -13.3973548866028  delta_E= -5.57e-09  |g|= 9.62e-05  |ddm|= 0.00053
HOMO: -0.3658764648715123 LUMO: -0.36453949145781056
mo_energy:
[-0.547 -0.404 -0.392 -0.391 -0.386 -0.385 -0.383 -0.366 -0.366 -0.365
 -0.362 -0.361 -0.351 -0.321]
e_fermi =  -0.3658358729348552
[2.    1.999 1.99  1.988 1.963 1.962 1.938 1.005 1.004 0.871 0.596 0.588
 0.096]
entropy correction =  -0.03876227491381881
cycle= 22 E= -13.3973548681457  delta_E= 1.85e-08  |g|= 0.00017  |ddm|= 0.000683
HOMO: -0.365875008778391 LUMO: -0.36453773449278953
mo_energy:
[-0.547 -0.404 -0.392 -0.391 -0.386 -0.385 -0.383 -0.366 -0.366 -0.365
 -0.362 -0.361 -0.351 -0.321]
e_fermi =  -0.3658335103713545
[2.    1.999 1.99  1.988 1.963 1.962 1.938 1.004 1.004 0.871 0.596 0.589
 0.096]
entropy correction =  -0.03876322351980606
cycle= 23 E= -13.3973548841505  delta_E= -1.6e-08  |g|= 0.000128  |ddm|= 0.000618
HOMO: -0.36587423568204097 LUMO: -0.36453748710138856
mo_energy:
[-0.547 -0.404 -0.392 -0.391 -0.386 -0.385 -0.383 -0.366 -0.366 -0.365
 -0.362 -0.361 -0.351 -0.321]
e_fermi =  -0.36583324209074675
[2.    1.999 1.99  1.988 1.963 1.962 1.938 1.004 1.004 0.871 0.596 0.588
 0.096]
entropy correction =  -0.03876326367172878
cycle= 24 E= -13.3973548631566  delta_E= 2.1e-08  |g|= 0.000215  |ddm|= 0.000463
HOMO: -0.36587549715276346 LUMO: -0.36453855102750077
mo_energy:
[-0.547 -0.404 -0.392 -0.391 -0.386 -0.385 -0.383 -0.366 -0.366 -0.365
 -0.362 -0.361 -0.351 -0.321]
e_fermi =  -0.3658341839147147
[2.    1.999 1.99  1.988 1.963 1.962 1.938 1.004 1.004 0.871 0.596 0.588
 0.096]
entropy correction =  -0.03876348455755974
cycle= 25 E= -13.397354896079  delta_E= -3.29e-08  |g|= 4.91e-05  |ddm|= 0.000382
HOMO: -0.36587672479465594 LUMO: -0.36453942103219716
mo_energy:
[-0.547 -0.404 -0.392 -0.391 -0.386 -0.385 -0.383 -0.366 -0.366 -0.365
 -0.362 -0.361 -0.351 -0.321]
e_fermi =  -0.3658351039932696
[2.    1.999 1.99  1.988 1.963 1.962 1.938 1.005 1.004 0.871 0.596 0.588
 0.096]
entropy correction =  -0.038763436470555
cycle= 26 E= -13.397354893405  delta_E= 2.67e-09  |g|= 8.42e-05  |ddm|= 0.000228
HOMO: -0.365875542781716 LUMO: -0.3645385312989027
mo_energy:
[-0.547 -0.404 -0.392 -0.391 -0.386 -0.385 -0.383 -0.366 -0.366 -0.365
 -0.362 -0.361 -0.351 -0.321]
e_fermi =  -0.36583416372489186
[2.    1.999 1.99  1.988 1.963 1.962 1.938 1.004 1.004 0.871 0.596 0.588
 0.096]
entropy correction =  -0.038763477547420044
cycle= 27 E= -13.3973548982039  delta_E= -4.8e-09  |g|= 1.63e-05  |ddm|= 0.000152
HOMO: -0.3658740054465496 LUMO: -0.3645375360932636
mo_energy:
[-0.547 -0.404 -0.392 -0.391 -0.386 -0.385 -0.383 -0.366 -0.366 -0.365
 -0.362 -0.361 -0.351 -0.321]
e_fermi =  -0.3658330271054937
[2.    1.999 1.99  1.988 1.963 1.962 1.938 1.004 1.004 0.871 0.596 0.589
 0.096]
entropy correction =  -0.03876365310700955
cycle= 28 E= -13.3973548953672  delta_E= 2.84e-09  |g|= 6.64e-05  |ddm|= 0.000124
HOMO: -0.3658742248200693 LUMO: -0.3645376673525219
mo_energy:
[-0.547 -0.404 -0.392 -0.391 -0.386 -0.385 -0.383 -0.366 -0.366 -0.365
 -0.362 -0.361 -0.351 -0.321]
e_fermi =  -0.3658331731121747
[2.    1.999 1.99  1.988 1.963 1.962 1.938 1.004 1.004 0.871 0.596 0.589
 0.096]
entropy correction =  -0.03876363519181529
cycle= 29 E= -13.3973548982613  delta_E= -2.89e-09  |g|= 1.45e-05  |ddm|= 0.000121
HOMO: -0.3658752479531668 LUMO: -0.3645382415635672
mo_energy:
[-0.547 -0.404 -0.392 -0.391 -0.386 -0.385 -0.383 -0.366 -0.366 -0.365
 -0.362 -0.361 -0.351 -0.321]
e_fermi =  -0.3658339000738359
[2.    1.999 1.99  1.988 1.963 1.962 1.938 1.004 1.004 0.871 0.596 0.588
 0.096]
entropy correction =  -0.03876341337578818
cycle= 30 E= -13.397354898342  delta_E= -8.07e-11  |g|= 8.03e-06  |ddm|= 4.59e-05
HOMO: -0.3658744369355051 LUMO: -0.3645380341338442
mo_energy:
[-0.547 -0.404 -0.392 -0.391 -0.386 -0.385 -0.383 -0.366 -0.366 -0.365
 -0.362 -0.361 -0.351 -0.321]
e_fermi =  -0.3658335264435092
[2.    1.999 1.99  1.988 1.963 1.962 1.938 1.004 1.004 0.871 0.596 0.588
 0.096]
entropy correction =  -0.038763675021293874
Extra cycle  E= -13.3973548964502  delta_E= 1.89e-09  |g|= 4.49e-05  |ddm|= 0.000134
converged SCF energy = -13.3973548964502


******** <class 'pydmfet.dfet_ao.scf.EmbedSCF'> flags ********
method = EmbedSCF-RKS-RHF
initial guess = minao
damping factor = 0
level shift factor = 0
DIIS = <class 'pyscf.scf.diis.CDIIS'>
DIIS start cycle = 1
DIIS space = 8
SCF tol = 1e-09
SCF gradient tol = None
max. SCF cycles = 50
direct_scf = False
chkfile to save SCF result = /tmp/tmpz8xatd76
max_memory 4000 MB (current use 2762 MB)
XC functionals = pbe,pbe
small_rho_cutoff = 1e-07
radial grids: 
    Treutler-Ahlrichs (JCP 102, 346 (M4)) radial grids
    
becke partition: Becke, JCP, 88, 2547 (1988)
pruning grids: <function nwchem_prune at 0x2b700efc3400>
grids dens level: 3
symmetrized grids: False
atomic radii adjust function: <function treutler_atomic_radii_adjust at 0x2b700efc3378>
Set gradient conv threshold to 3.16228e-05
tot grids = 190200
init E= -9.12491445347648
HOMO: -0.18144427328959134 LUMO: -0.17066153508085452
mo_energy:
[-0.295 -0.295 -0.264 -0.238 -0.19  -0.187 -0.187 -0.181 -0.181 -0.171
 -0.167 -0.157 -0.157 -0.149]
e_fermi =  -0.17437421057562755
[2.    2.    2.    2.    1.918 1.853 1.852 1.611 1.609 0.645 0.365 0.062
 0.061 0.012 0.012]
entropy correction =  -0.031394403966688016
cycle= 1 E= -12.4354581010001  delta_E= -3.31  |g|= 0.772  |ddm|= 5.23
HOMO: -0.13286415941577284 LUMO: -0.12978885116016706
mo_energy:
[-0.352 -0.352 -0.312 -0.262 -0.239 -0.239 -0.152 -0.133 -0.133 -0.13
 -0.111 -0.11  -0.11  -0.103]
e_fermi =  -0.12891292786717418
[2.000e+00 2.000e+00 2.000e+00 2.000e+00 2.000e+00 2.000e+00 1.981e+00
 1.392e+00 1.376e+00 1.087e+00 5.112e-02 4.660e-02 4.214e-02 1.112e-02
 1.014e-02 1.009e-03]
entropy correction =  -0.023858090915109157
cycle= 2 E= -12.3586925708912  delta_E= 0.0768  |g|= 0.985  |ddm|=  2.9
HOMO: -0.21734445504678765 LUMO: -0.20905815859483104
mo_energy:
[-0.375 -0.375 -0.342 -0.296 -0.24  -0.24  -0.235 -0.217 -0.217 -0.209
 -0.207 -0.207 -0.199 -0.19 ]
e_fermi =  -0.21417081333542975
[2.000e+00 2.000e+00 2.000e+00 2.000e+00 1.988e+00 1.988e+00 1.967e+00
 1.311e+00 1.307e+00 5.291e-01 3.922e-01 3.877e-01 9.534e-02 1.688e-02
 1.595e-02 1.003e-03]
entropy correction =  -0.033007776326196024
cycle= 3 E= -12.7445195392748  delta_E= -0.386  |g|= 0.228  |ddm|= 1.38
HOMO: -0.21800532706700806 LUMO: -0.21323464615604076
mo_energy:
[-0.365 -0.364 -0.333 -0.29  -0.232 -0.228 -0.227 -0.218 -0.218 -0.213
 -0.213 -0.208 -0.2   -0.192]
e_fermi =  -0.21572703867701035
[2.    2.    2.    2.    1.931 1.835 1.799 1.227 1.224 0.756 0.742 0.363
 0.09  0.016 0.016]
entropy correction =  -0.04171253076376928
cycle= 4 E= -12.7668268916891  delta_E= -0.0223  |g|= 0.093  |ddm|= 0.548
HOMO: -0.21811465798030968 LUMO: -0.21341361421008576
mo_energy:
[-0.364 -0.364 -0.332 -0.29  -0.233 -0.227 -0.227 -0.218 -0.218 -0.213
 -0.213 -0.209 -0.2   -0.191]
e_fermi =  -0.2157569872183034
[2.    2.    2.    2.    1.935 1.813 1.793 1.237 1.231 0.77  0.723 0.38
 0.087 0.015 0.015]
entropy correction =  -0.041951960024026506
cycle= 5 E= -12.7564545640313  delta_E= 0.0104  |g|= 0.151  |ddm|= 0.357
HOMO: -0.2177441023702764 LUMO: -0.21313001725054234
mo_energy:
[-0.364 -0.363 -0.332 -0.29  -0.232 -0.227 -0.226 -0.218 -0.218 -0.213
 -0.213 -0.208 -0.2   -0.192]
e_fermi =  -0.21552043812848332
[2.    2.    2.    2.    1.935 1.829 1.785 1.228 1.219 0.765 0.737 0.385
 0.084 0.017 0.015]
entropy correction =  -0.041990851934896
cycle= 6 E= -12.7731980129966  delta_E= -0.0167  |g|= 0.0272  |ddm|= 0.242
HOMO: -0.2176554794200697 LUMO: -0.2129395448728526
mo_energy:
[-0.364 -0.362 -0.331 -0.289 -0.232 -0.228 -0.225 -0.218 -0.218 -0.213
 -0.213 -0.208 -0.2   -0.192]
e_fermi =  -0.2153073428049547
[2.    2.    2.    2.    1.933 1.84  1.764 1.234 1.231 0.768 0.733 0.379
 0.083 0.017 0.016]
entropy correction =  -0.04199963632835464
cycle= 7 E= -12.7724516668086  delta_E= 0.000746  |g|= 0.0422  |ddm|= 0.153
HOMO: -0.21763685768948907 LUMO: -0.21272106067676777
mo_energy:
[-0.363 -0.363 -0.331 -0.289 -0.232 -0.226 -0.226 -0.218 -0.218 -0.213
 -0.213 -0.208 -0.2   -0.191]
e_fermi =  -0.21527054050770042
[2.    2.    2.    2.    1.932 1.808 1.801 1.235 1.232 0.75  0.745 0.378
 0.084 0.017 0.016]
entropy correction =  -0.041998563854426324
cycle= 8 E= -12.7738815843472  delta_E= -0.00143  |g|= 0.00605  |ddm|= 0.104
HOMO: -0.21776409771698027 LUMO: -0.2128849225177325
mo_energy:
[-0.364 -0.363 -0.331 -0.289 -0.232 -0.227 -0.226 -0.218 -0.218 -0.213
 -0.213 -0.208 -0.2   -0.192]
e_fermi =  -0.21540366726735824
[2.    2.    2.    2.    1.932 1.807 1.8   1.235 1.232 0.753 0.747 0.377
 0.083 0.017 0.016]
entropy correction =  -0.04202182390208058
cycle= 9 E= -12.773827281126  delta_E= 5.43e-05  |g|= 0.0104  |ddm|= 0.0208
HOMO: -0.21786976183179885 LUMO: -0.2130049627089801
mo_energy:
[-0.364 -0.363 -0.331 -0.29  -0.232 -0.227 -0.227 -0.218 -0.218 -0.213
 -0.213 -0.208 -0.2   -0.192]
e_fermi =  -0.21551101760735722
[2.    2.    2.    2.    1.932 1.803 1.801 1.234 1.232 0.755 0.751 0.376
 0.083 0.017 0.016]
entropy correction =  -0.042052168182096235
cycle= 10 E= -12.7739060475886  delta_E= -7.88e-05  |g|= 0.00263  |ddm|= 0.0166
HOMO: -0.2178633940926657 LUMO: -0.2129892955070282
mo_energy:
[-0.363 -0.363 -0.331 -0.29  -0.232 -0.227 -0.227 -0.218 -0.218 -0.213
 -0.213 -0.208 -0.2   -0.192]
e_fermi =  -0.21550413111540945
[2.    2.    2.    2.    1.932 1.803 1.801 1.233 1.232 0.754 0.752 0.376
 0.083 0.017 0.016]
entropy correction =  -0.04205370981561917
cycle= 11 E= -12.7739100987647  delta_E= -4.05e-06  |g|= 0.0012  |ddm|= 0.00705
HOMO: -0.21783662080411367 LUMO: -0.21295288287704367
mo_energy:
[-0.363 -0.363 -0.331 -0.29  -0.232 -0.227 -0.227 -0.218 -0.218 -0.213
 -0.213 -0.208 -0.2   -0.192]
e_fermi =  -0.2154771669058705
[2.    2.    2.    2.    1.932 1.803 1.802 1.234 1.232 0.753 0.752 0.376
 0.083 0.017 0.016]
entropy correction =  -0.0420464828134038
cycle= 12 E= -12.7739109107905  delta_E= -8.12e-07  |g|= 0.000499  |ddm|= 0.00326
HOMO: -0.21782638101660873 LUMO: -0.21294301285725495
mo_energy:
[-0.363 -0.363 -0.331 -0.289 -0.232 -0.227 -0.227 -0.218 -0.218 -0.213
 -0.213 -0.208 -0.2   -0.192]
e_fermi =  -0.21546660225960612
[2.    2.    2.    2.    1.932 1.803 1.802 1.233 1.232 0.753 0.751 0.376
 0.083 0.017 0.016]
entropy correction =  -0.04203885709252186
cycle= 13 E= -12.7739112069042  delta_E= -2.96e-07  |g|= 7.86e-05  |ddm|= 0.00169
HOMO: -0.21782575674985583 LUMO: -0.21294206694487813
mo_energy:
[-0.363 -0.363 -0.331 -0.289 -0.232 -0.227 -0.226 -0.218 -0.218 -0.213
 -0.213 -0.208 -0.2   -0.192]
e_fermi =  -0.2154656651940458
[2.    2.    2.    2.    1.932 1.803 1.802 1.234 1.232 0.753 0.751 0.376
 0.083 0.017 0.016]
entropy correction =  -0.04203996438982705
cycle= 14 E= -12.7739112099911  delta_E= -3.09e-09  |g|= 5.05e-05  |ddm|= 0.000351
HOMO: -0.2178268912829691 LUMO: -0.21294363753988046
mo_energy:
[-0.363 -0.363 -0.331 -0.289 -0.232 -0.227 -0.226 -0.218 -0.218 -0.213
 -0.213 -0.208 -0.2   -0.192]
e_fermi =  -0.21546685679320002
[2.    2.    2.    2.    1.932 1.803 1.802 1.234 1.232 0.753 0.751 0.376
 0.083 0.017 0.016]
entropy correction =  -0.042040295999477166
cycle= 15 E= -12.7739112124959  delta_E= -2.5e-09  |g|= 1.78e-05  |ddm|= 0.000193
HOMO: -0.2178275511255516 LUMO: -0.21294479433159377
mo_energy:
[-0.363 -0.363 -0.331 -0.289 -0.232 -0.227 -0.226 -0.218 -0.218 -0.213
 -0.213 -0.208 -0.2   -0.192]
e_fermi =  -0.21546755732809755
[2.    2.    2.    2.    1.932 1.803 1.802 1.234 1.232 0.753 0.751 0.376
 0.083 0.017 0.016]
entropy correction =  -0.04204055196522367
cycle= 16 E= -12.7739112078099  delta_E= 4.69e-09  |g|= 7.96e-05  |ddm|= 0.000155
HOMO: -0.21782719190200464 LUMO: -0.21294397782248162
mo_energy:
[-0.363 -0.363 -0.331 -0.289 -0.232 -0.227 -0.226 -0.218 -0.218 -0.213
 -0.213 -0.208 -0.2   -0.192]
e_fermi =  -0.21546715678408468
[2.    2.    2.    2.    1.932 1.803 1.802 1.234 1.232 0.753 0.751 0.376
 0.083 0.017 0.016]
entropy correction =  -0.04204028291282639
cycle= 17 E= -12.773911212678  delta_E= -4.87e-09  |g|= 9.72e-06  |ddm|= 0.000146
HOMO: -0.21782728111640823 LUMO: -0.21294405318360587
mo_energy:
[-0.363 -0.363 -0.331 -0.289 -0.232 -0.227 -0.226 -0.218 -0.218 -0.213
 -0.213 -0.208 -0.2   -0.192]
e_fermi =  -0.21546727164084045
[2.    2.    2.    2.    1.932 1.803 1.802 1.234 1.232 0.753 0.751 0.376
 0.083 0.017 0.016]
entropy correction =  -0.04204027079956877
cycle= 18 E= -12.773911212637  delta_E= 4.1e-11  |g|= 1.22e-05  |ddm|= 4.11e-05
HOMO: -0.21782715215505535 LUMO: -0.21294422587593834
mo_energy:
[-0.363 -0.363 -0.331 -0.289 -0.232 -0.227 -0.226 -0.218 -0.218 -0.213
 -0.213 -0.208 -0.2   -0.192]
e_fermi =  -0.21546715494307075
[2.    2.    2.    2.    1.932 1.803 1.802 1.234 1.232 0.753 0.751 0.376
 0.083 0.017 0.016]
entropy correction =  -0.04204019805786639
Extra cycle  E= -12.7739112080152  delta_E= 4.62e-09  |g|= 7.72e-05  |ddm|= 0.000181
converged SCF energy = -12.7739112080152
|umat| =  2.74489915614893
rks_ao.ne_frozen =  0
Set gradient conv threshold to 3.16228e-05
Initial guess from hcore.
HOMO:  -3.5054649662809227 LUMO:  -3.31197210803725
Fermi energy:      -3.4069741758
[2. 2. 2. 2. 2. 2. 2. 2. 2.]
tot grids = 190200
init E= -10.1135256241988
HOMO:  -0.06760668468552787 LUMO:  -0.06730210887691225
Fermi energy:      -0.0719139755
[2.     2.     2.     2.     2.     2.     1.9951 1.9441 0.5941 0.5689
 0.4587 0.439 ]
entropy correction =  -0.024147648178925195
cycle= 1 E= -10.2047923981292  delta_E= -0.0913  |g|= 2.75  |ddm|= 7.88
HOMO:  -0.7796836930616599 LUMO:  -0.6501446395884828
Fermi energy:      -0.7135770808
[2. 2. 2. 2. 2. 2. 2. 2. 2.]
entropy correction =  -1.0152934533526218e-06
cycle= 2 E= -11.5278648115708  delta_E= -1.32  |g|= 2.03  |ddm|= 6.49
HOMO:  -0.45067626416432455 LUMO:  -0.41776606874228694
Fermi energy:      -0.4348964807
[2.0000e+00 2.0000e+00 2.0000e+00 2.0000e+00 1.9997e+00 1.9971e+00
 1.9970e+00 1.9188e+00 1.9183e+00 6.2980e-02 6.2115e-02 2.6411e-02
 1.6981e-02 6.8584e-04]
entropy correction =  -0.007650357358120145
cycle= 3 E= -13.2283229650664  delta_E= -1.7  |g|= 0.546  |ddm|= 3.81
HOMO:  -0.36571089335088164 LUMO:  -0.3651365565384209
Fermi energy:      -0.3680107937
[2.0000e+00 1.9990e+00 1.9960e+00 1.9953e+00 1.9775e+00 1.9759e+00
 1.8853e+00 1.2600e+00 7.7398e-01 7.2024e-01 6.1046e-01 5.6460e-01
 2.4148e-01 2.0647e-04]
entropy correction =  -0.039414394466106506
cycle= 4 E= -13.367109492869  delta_E= -0.139  |g|= 0.188  |ddm|= 1.67
HOMO:  -0.3689829895460777 LUMO:  -0.362751722994428
Fermi energy:      -0.3677187583
[2.0000e+00 1.9999e+00 1.9988e+00 1.9986e+00 1.9845e+00 1.9790e+00
 1.9503e+00 1.4456e+00 1.1258e+00 5.4048e-01 4.6735e-01 4.3762e-01
 7.1951e-02 1.6971e-04]
entropy correction =  -0.03315351180550903
cycle= 5 E= -12.9929240842923  delta_E= 0.374  |g|= 0.761  |ddm|=  1.4
HOMO:  -0.37320280070243755 LUMO:  -0.3686215223515129
Fermi energy:      -0.3715807670
[2.0000e+00 1.9998e+00 1.9971e+00 1.9952e+00 1.9727e+00 1.9669e+00
 1.9625e+00 1.1750e+00 1.1608e+00 7.1242e-01 4.9040e-01 4.7916e-01
 8.7784e-02 2.1402e-04]
entropy correction =  -0.035760827995953835
cycle= 6 E= -13.3826099722621  delta_E= -0.39  |g|= 0.138  |ddm|= 1.05
HOMO:  -0.3716647370818195 LUMO:  -0.3703039669699816
Fermi energy:      -0.3709556544
[2.0000e+00 1.9994e+00 1.9962e+00 1.9886e+00 1.9757e+00 1.9473e+00
 1.9309e+00 1.2120e+00 1.0708e+00 9.3492e-01 5.5486e-01 3.1864e-01
 7.0508e-02 2.3561e-04]
entropy correction =  -0.036243629869031305
cycle= 7 E= -13.3743502308983  delta_E= 0.00826  |g|= 0.146  |ddm|= 0.538
HOMO:  -0.3700067336089432 LUMO:  -0.36743907546931864
Fermi energy:      -0.3694911575
[2.0000e+00 1.9992e+00 1.9924e+00 1.9908e+00 1.9628e+00 1.9544e+00
 1.9365e+00 1.1610e+00 1.0515e+00 7.9762e-01 5.4282e-01 5.2698e-01
 8.3893e-02 2.5019e-04]
entropy correction =  -0.03781411728441613
cycle= 8 E= -13.3942971920813  delta_E= -0.0199  |g|= 0.0611  |ddm|= 0.463
HOMO:  -0.367649231755673 LUMO:  -0.36558617337369587
Fermi energy:      -0.3671892446
[2.0000e+00 1.9991e+00 1.9915e+00 1.9881e+00 1.9640e+00 1.9572e+00
 1.9363e+00 1.0585e+00 1.0460e+00 8.4105e-01 5.7244e-01 5.5735e-01
 8.8196e-02 2.4311e-04]
entropy correction =  -0.0383890861849845
cycle= 9 E= -13.3870457625386  delta_E= 0.00725  |g|= 0.12  |ddm|= 0.272
HOMO:  -0.3644787664773763 LUMO:  -0.363971486828964
Fermi energy:      -0.3651051959
[2.0000e+00 1.9990e+00 1.9892e+00 1.9852e+00 1.9648e+00 1.9629e+00
 1.9351e+00 1.0271e+00 9.3744e-01 8.8711e-01 6.2603e-01 5.9077e-01
 9.5127e-02 2.3806e-04]
entropy correction =  -0.038972218613767345
cycle= 10 E= -13.3954103427528  delta_E= -0.00836  |g|= 0.0489  |ddm|= 0.235
HOMO:  -0.36444200016415024 LUMO:  -0.36388276565577266
Fermi energy:      -0.3648350756
[2.0000e+00 1.9990e+00 1.9890e+00 1.9868e+00 1.9647e+00 1.9619e+00
 1.9369e+00 9.8851e-01 9.6071e-01 9.0506e-01 6.1352e-01 5.9527e-01
 9.8376e-02 2.3653e-04]
entropy correction =  -0.03897900984317052
cycle= 11 E= -13.3956437800387  delta_E= -0.000233  |g|= 0.051  |ddm|= 0.147
HOMO:  -0.36459967699064966 LUMO:  -0.36382267830794424
Fermi energy:      -0.3649380067
[2.0000e+00 1.9991e+00 1.9893e+00 1.9872e+00 1.9642e+00 1.9626e+00
 1.9385e+00 9.9736e-01 9.6618e-01 8.8893e-01 6.0754e-01 6.0135e-01
 9.7476e-02 2.3874e-04]
entropy correction =  -0.03890046539613345
cycle= 12 E= -13.3972158766969  delta_E= -0.00157  |g|= 0.0163  |ddm|= 0.112
HOMO:  -0.36586814027114917 LUMO:  -0.3645269395961765
Fermi energy:      -0.3658152282
[2.0000e+00 1.9991e+00 1.9903e+00 1.9883e+00 1.9627e+00 1.9614e+00
 1.9370e+00 1.0085e+00 1.0053e+00 8.7188e-01 5.9354e-01 5.8589e-01
 9.5878e-02 2.4320e-04]
entropy correction =  -0.038762258840106076
cycle= 13 E= -13.3974634125932  delta_E= -0.000248  |g|= 0.00217  |ddm|= 0.0477
HOMO:  -0.3659217649964648 LUMO:  -0.36456600823822566
Fermi energy:      -0.3658730374
[2.0000e+00 1.9991e+00 1.9901e+00 1.9883e+00 1.9633e+00 1.9611e+00
 1.9376e+00 1.0084e+00 1.0049e+00 8.7004e-01 5.9524e-01 5.8618e-01
 9.5501e-02 2.4229e-04]
entropy correction =  -0.038749419759236486
cycle= 14 E= -13.3974597351146  delta_E= 3.68e-06  |g|= 0.00284  |ddm|= 0.0117
HOMO:  -0.36595295742523054 LUMO:  -0.3645832810791354
Fermi energy:      -0.3658983848
[2.0000e+00 1.9991e+00 1.9902e+00 1.9882e+00 1.9629e+00 1.9617e+00
 1.9379e+00 1.0078e+00 1.0055e+00 8.6924e-01 5.9456e-01 5.8736e-01
 9.5377e-02 2.4189e-04]
entropy correction =  -0.038742573072825054
cycle= 15 E= -13.3974655017134  delta_E= -5.77e-06  |g|= 0.00145  |ddm|= 0.0102
HOMO:  -0.36597008621996974 LUMO:  -0.36459855217511256
Fermi energy:      -0.3659055186
[2.0000e+00 1.9991e+00 1.9902e+00 1.9882e+00 1.9629e+00 1.9614e+00
 1.9374e+00 1.0068e+00 1.0065e+00 8.7004e-01 5.9475e-01 5.8692e-01
 9.5478e-02 2.4252e-04]
entropy correction =  -0.03875600072395339
cycle= 16 E= -13.3974678497407  delta_E= -2.35e-06  |g|= 0.000202  |ddm|= 0.00441
HOMO:  -0.3659414690734526 LUMO:  -0.3645860992666717
Fermi energy:      -0.3658861220
[2.0000e+00 1.9991e+00 1.9902e+00 1.9882e+00 1.9630e+00 1.9614e+00
 1.9374e+00 1.0066e+00 1.0055e+00 8.7073e-01 5.9463e-01 5.8756e-01
 9.5561e-02 2.4259e-04]
entropy correction =  -0.03876312842885458
cycle= 17 E= -13.3974671365898  delta_E= 7.13e-07  |g|= 0.000866  |ddm|= 0.00273
HOMO:  -0.3659468360140638 LUMO:  -0.36458720985941717
Fermi energy:      -0.3658886191
[2.0000e+00 1.9991e+00 1.9902e+00 1.9882e+00 1.9629e+00 1.9615e+00
 1.9374e+00 1.0065e+00 1.0058e+00 8.7059e-01 5.9483e-01 5.8726e-01
 9.5550e-02 2.4253e-04]
entropy correction =  -0.03876093781102867
cycle= 18 E= -13.3974678370346  delta_E= -7e-07  |g|= 0.000262  |ddm|= 0.00232
HOMO:  -0.36593671043261977 LUMO:  -0.3645811751827035
Fermi energy:      -0.3658819323
[2.0000e+00 1.9991e+00 1.9902e+00 1.9882e+00 1.9630e+00 1.9614e+00
 1.9374e+00 1.0064e+00 1.0055e+00 8.7065e-01 5.9514e-01 5.8724e-01
 9.5551e-02 2.4249e-04]
entropy correction =  -0.03876187555677812
cycle= 19 E= -13.3974677295664  delta_E= 1.07e-07  |g|= 0.000457  |ddm|= 0.00111
HOMO:  -0.3659392294696283 LUMO:  -0.36458177598321256
Fermi energy:      -0.3658823396
[2.0000e+00 1.9991e+00 1.9902e+00 1.9882e+00 1.9630e+00 1.9615e+00
 1.9374e+00 1.0063e+00 1.0057e+00 8.7067e-01 5.9504e-01 5.8731e-01
 9.5555e-02 2.4250e-04]
entropy correction =  -0.03876212688486915
cycle= 20 E= -13.3974678105453  delta_E= -8.1e-08  |g|= 0.000337  |ddm|= 0.00103
HOMO:  -0.3659455524926086 LUMO:  -0.36458429403574183
Fermi energy:      -0.3658856844
[2.0000e+00 1.9991e+00 1.9902e+00 1.9882e+00 1.9629e+00 1.9615e+00
 1.9374e+00 1.0062e+00 1.0060e+00 8.7059e-01 5.9492e-01 5.8729e-01
 9.5548e-02 2.4249e-04]
entropy correction =  -0.03876099750214204
cycle= 21 E= -13.3974678614981  delta_E= -5.1e-08  |g|= 0.000215  |ddm|= 0.000723
HOMO:  -0.365946978540575 LUMO:  -0.364585554560222
Fermi energy:      -0.3658871706
[2.0000e+00 1.9991e+00 1.9902e+00 1.9882e+00 1.9629e+00 1.9614e+00
 1.9374e+00 1.0063e+00 1.0060e+00 8.7057e-01 5.9491e-01 5.8725e-01
 9.5547e-02 2.4250e-04]
entropy correction =  -0.03876074549983988
cycle= 22 E= -13.3974678920347  delta_E= -3.05e-08  |g|= 4.59e-05  |ddm|= 0.00042
HOMO:  -0.36594895795263815 LUMO:  -0.3645871106949929
Fermi energy:      -0.3658890359
[2.0000e+00 1.9991e+00 1.9902e+00 1.9882e+00 1.9629e+00 1.9614e+00
 1.9374e+00 1.0064e+00 1.0060e+00 8.7054e-01 5.9488e-01 5.8721e-01
 9.5544e-02 2.4251e-04]
entropy correction =  -0.038760451974231495
cycle= 23 E= -13.3974678929053  delta_E= -8.71e-10  |g|= 3.37e-05  |ddm|= 0.00014
HOMO:  -0.3659487213109039 LUMO:  -0.36458682788590024
Fermi energy:      -0.3658888314
[2.0000e+00 1.9991e+00 1.9902e+00 1.9882e+00 1.9629e+00 1.9614e+00
 1.9374e+00 1.0063e+00 1.0060e+00 8.7053e-01 5.9489e-01 5.8721e-01
 9.5543e-02 2.4250e-04]
entropy correction =  -0.038760363651111907
cycle= 24 E= -13.3974678938232  delta_E= -9.18e-10  |g|= 8.4e-06  |ddm|= 8.07e-05
HOMO:  -0.3659511925696419 LUMO:  -0.3645881348914299
Fermi energy:      -0.3658905871
[2.0000e+00 1.9991e+00 1.9902e+00 1.9882e+00 1.9629e+00 1.9614e+00
 1.9374e+00 1.0064e+00 1.0061e+00 8.7049e-01 5.9487e-01 5.8718e-01
 9.5538e-02 2.4251e-04]
entropy correction =  -0.03875990983501407
Extra cycle  E= -13.397467892613  delta_E= 1.21e-09  |g|= 3.44e-05  |ddm|= 0.000129
entropy correction =  -0.03875990983501407
rks_ao.ne_frozen =  0
Set gradient conv threshold to 3.16228e-05
Initial guess from hcore.
HOMO:  -2.5701573897375343 LUMO:  -2.569859248891725
Fermi energy:      -2.5706530139
[2.0000e+00 2.0000e+00 2.0000e+00 2.0000e+00 2.0000e+00 2.0000e+00
 2.0000e+00 1.9959e+00 9.5048e-01 9.2079e-01 6.3189e-02 6.0171e-02
 4.5819e-03 4.1594e-03 7.6452e-04]
tot grids = 190200
init E= -9.69437813054844
HOMO:  0.020098627553396725 LUMO:  0.02286588611316418
Fermi energy:       0.0199486096
[2.     2.     2.     2.     2.     2.     1.9952 1.3625 0.985  0.7163
 0.4214 0.2225 0.113  0.0879 0.0455 0.0369 0.0083 0.0029 0.0025]
entropy correction =  -0.034978245653389174
cycle= 1 E= -10.9816402261331  delta_E= -1.29  |g|= 2.09  |ddm|= 9.52
HOMO:  -0.45030219664142307 LUMO:  -0.4398133996135854
Fermi energy:      -0.4449475375
[2.     2.     2.     2.     2.     2.     1.9994 1.5657 1.4895 0.5274
 0.2018 0.1797 0.0344 0.002 ]
entropy correction =  -0.023961245774341278
cycle= 2 E= -11.0742124466848  delta_E= -0.0926  |g|= 2.12  |ddm|= 9.34
HOMO:  -0.2966460890944493 LUMO:  -0.28292040948997305
Fermi energy:      -0.2885632465
[2.     2.     2.     2.     1.9965 1.9851 1.9774 1.6959 1.6686 0.4889
 0.0726 0.0579 0.0503 0.0035 0.0032]
entropy correction =  -0.019799048429124343
cycle= 3 E= -12.2975320348905  delta_E= -1.22  |g|= 0.881  |ddm|= 1.82
HOMO:  -0.2586984136862007 LUMO:  -0.2556755420636447
Fermi energy:      -0.2571851538
[2.0000e+00 2.0000e+00 2.0000e+00 2.0000e+00 1.9991e+00 1.9522e+00
 1.9052e+00 1.7435e+00 1.1502e+00 8.5018e-01 1.6515e-01 1.5343e-01
 7.8137e-02 1.8281e-03 1.0157e-03 1.5895e-04]
entropy correction =  -0.02787495947096455
cycle= 4 E= -11.4873437665904  delta_E= 0.81  |g|= 1.31  |ddm|= 2.14
HOMO:  -0.2377487508581409 LUMO:  -0.23175978934318398
Fermi energy:      -0.2352362153
[2.0000e+00 2.0000e+00 2.0000e+00 2.0000e+00 1.9704e+00 1.9336e+00
 1.8469e+00 1.2944e+00 1.2461e+00 6.6572e-01 6.4974e-01 2.8788e-01
 6.8148e-02 2.3095e-02 1.3369e-02 6.2638e-04]
entropy correction =  -0.03738070242670604
cycle= 5 E= -12.7602174128018  delta_E= -1.27  |g|= 0.126  |ddm|= 2.07
HOMO:  -0.2168872662514293 LUMO:  -0.21440652806864952
Fermi energy:      -0.2156335661
[2.0000e+00 2.0000e+00 2.0000e+00 2.0000e+00 1.9575e+00 1.9423e+00
 1.7703e+00 1.5506e+00 1.1247e+00 8.7791e-01 4.0365e-01 2.3762e-01
 1.0493e-01 1.7348e-02 1.2533e-02 6.3934e-04]
entropy correction =  -0.036579294981660654
cycle= 6 E= -12.5559278830791  delta_E= 0.204  |g|= 0.528  |ddm|= 1.39
HOMO:  -0.21711047949679455 LUMO:  -0.21275346848656115
Fermi energy:      -0.2145630368
[2.0000e+00 2.0000e+00 2.0000e+00 2.0000e+00 1.9306e+00 1.7850e+00
 1.7493e+00 1.2666e+00 1.2494e+00 8.2099e-01 7.2004e-01 3.5414e-01
 8.7406e-02 1.9648e-02 1.6089e-02 8.9412e-04]
entropy correction =  -0.04271203366892966
cycle= 7 E= -12.7704610128975  delta_E= -0.215  |g|= 0.0578  |ddm|=  1.1
HOMO:  -0.21750854940160189 LUMO:  -0.21349625634884994
Fermi energy:      -0.2151937196
[2.0000e+00 2.0000e+00 2.0000e+00 2.0000e+00 1.9373e+00 1.8647e+00
 1.7098e+00 1.2380e+00 1.2274e+00 8.3187e-01 6.9358e-01 3.7972e-01
 8.3521e-02 1.7319e-02 1.6014e-02 7.6834e-04]
entropy correction =  -0.042163469874384435
cycle= 8 E= -12.766482440187  delta_E= 0.00398  |g|= 0.0963  |ddm|= 0.317
HOMO:  -0.21767105752407417 LUMO:  -0.21275154904449758
Fermi energy:      -0.2153059650
[2.0000e+00 2.0000e+00 2.0000e+00 2.0000e+00 1.9348e+00 1.8060e+00
 1.7972e+00 1.2447e+00 1.2322e+00 7.4997e-01 7.3718e-01 3.8070e-01
 8.3729e-02 1.7067e-02 1.5622e-02 7.7970e-04]
entropy correction =  -0.04197669847718134
cycle= 9 E= -12.7705179848705  delta_E= -0.00404  |g|= 0.0664  |ddm|= 0.244
HOMO:  -0.21702358495198065 LUMO:  -0.2122186427475262
Fermi energy:      -0.2146679535
[2.0000e+00 2.0000e+00 2.0000e+00 2.0000e+00 1.9326e+00 1.8271e+00
 1.7904e+00 1.2333e+00 1.2313e+00 7.5985e-01 7.2710e-01 3.8073e-01
 8.3977e-02 1.6866e-02 1.6110e-02 7.9470e-04]
entropy correction =  -0.04188569481649035
cycle= 10 E= -12.773060951311  delta_E= -0.00254  |g|= 0.0329  |ddm|= 0.128
HOMO:  -0.217412825597291 LUMO:  -0.2125220948013152
Fermi energy:      -0.2150639829
[2.0000e+00 2.0000e+00 2.0000e+00 2.0000e+00 1.9323e+00 1.8095e+00
 1.8001e+00 1.2358e+00 1.2307e+00 7.5115e-01 7.4528e-01 3.7773e-01
 8.3733e-02 1.6811e-02 1.6261e-02 7.8878e-04]
entropy correction =  -0.04198720834410619
cycle= 11 E= -12.7736574561758  delta_E= -0.000597  |g|= 0.0184  |ddm|= 0.0911
HOMO:  -0.21777687074630803 LUMO:  -0.2129163231356185
Fermi energy:      -0.2154245648
[2.0000e+00 2.0000e+00 2.0000e+00 2.0000e+00 1.9324e+00 1.8035e+00
 1.7983e+00 1.2351e+00 1.2310e+00 7.5431e-01 7.5211e-01 3.7604e-01
 8.3320e-02 1.6972e-02 1.6167e-02 7.8097e-04]
entropy correction =  -0.04207997203981004
cycle= 12 E= -12.7738888800023  delta_E= -0.000231  |g|= 0.00595  |ddm|= 0.0409
HOMO:  -0.21782353429512508 LUMO:  -0.21296563111007083
Fermi energy:      -0.2154707002
[2.0000e+00 2.0000e+00 2.0000e+00 2.0000e+00 1.9325e+00 1.8039e+00
 1.7996e+00 1.2341e+00 1.2310e+00 7.5460e-01 7.5084e-01 3.7625e-01
 8.3230e-02 1.6900e-02 1.6200e-02 7.7933e-04]
entropy correction =  -0.04205839077672402
cycle= 13 E= -12.7739054244324  delta_E= -1.65e-05  |g|= 0.00366  |ddm|= 0.0156
HOMO:  -0.21788005203476501 LUMO:  -0.21301785022129596
Fermi energy:      -0.2155232501
[2.0000e+00 2.0000e+00 2.0000e+00 2.0000e+00 1.9325e+00 1.8029e+00
 1.8017e+00 1.2332e+00 1.2314e+00 7.5457e-01 7.5026e-01 3.7648e-01
 8.3113e-02 1.6824e-02 1.6233e-02 7.7768e-04]
entropy correction =  -0.04204485569506972
cycle= 14 E= -12.7739152186092  delta_E= -9.79e-06  |g|= 0.00105  |ddm|= 0.00913
HOMO:  -0.21782543319062914 LUMO:  -0.21293668951778133
Fermi energy:      -0.2154654892
[2.0000e+00 2.0000e+00 2.0000e+00 2.0000e+00 1.9324e+00 1.8039e+00
 1.8018e+00 1.2334e+00 1.2317e+00 7.5238e-01 7.5090e-01 3.7648e-01
 8.3148e-02 1.6851e-02 1.6233e-02 7.8062e-04]
entropy correction =  -0.042030692235707885
cycle= 15 E= -12.7739162942432  delta_E= -1.08e-06  |g|= 0.00061  |ddm|= 0.00401
HOMO:  -0.21782227498363652 LUMO:  -0.21293994380061104
Fermi energy:      -0.2154627452
[2.0000e+00 2.0000e+00 2.0000e+00 2.0000e+00 1.9324e+00 1.8031e+00
 1.8020e+00 1.2337e+00 1.2317e+00 7.5294e-01 7.5076e-01 3.7649e-01
 8.3139e-02 1.6875e-02 1.6218e-02 7.8069e-04]
entropy correction =  -0.04203894347828815
cycle= 16 E= -12.7739160563915  delta_E= 2.38e-07  |g|= 0.000802  |ddm|= 0.00279
HOMO:  -0.21783264387229664 LUMO:  -0.21295027618918794
Fermi energy:      -0.2154720238
[2.0000e+00 2.0000e+00 2.0000e+00 2.0000e+00 1.9324e+00 1.8033e+00
 1.8014e+00 1.2336e+00 1.2318e+00 7.5304e-01 7.5104e-01 3.7648e-01
 8.3130e-02 1.6862e-02 1.6229e-02 7.8022e-04]
entropy correction =  -0.04204341063638589
cycle= 17 E= -12.7739165525795  delta_E= -4.96e-07  |g|= 0.000196  |ddm|= 0.00204
HOMO:  -0.2178306487185214 LUMO:  -0.2129466813086586
Fermi energy:      -0.2154704592
[2.0000e+00 2.0000e+00 2.0000e+00 2.0000e+00 1.9324e+00 1.8032e+00
 1.8016e+00 1.2336e+00 1.2317e+00 7.5285e-01 7.5111e-01 3.7651e-01
 8.3128e-02 1.6862e-02 1.6226e-02 7.8018e-04]
entropy correction =  -0.04204154686166271
cycle= 18 E= -12.7739165843448  delta_E= -3.18e-08  |g|= 3.66e-05  |ddm|= 0.00053
HOMO:  -0.2178312595217304 LUMO:  -0.2129475353904923
Fermi energy:      -0.2154711686
[2.0000e+00 2.0000e+00 2.0000e+00 2.0000e+00 1.9324e+00 1.8032e+00
 1.8016e+00 1.2335e+00 1.2317e+00 7.5286e-01 7.5110e-01 3.7651e-01
 8.3125e-02 1.6861e-02 1.6225e-02 7.8011e-04]
entropy correction =  -0.04204113160517497
cycle= 19 E= -12.7739165830018  delta_E= 1.34e-09  |g|= 5.31e-05  |ddm|= 0.000176
HOMO:  -0.2178316309483823 LUMO:  -0.21294784674075892
Fermi energy:      -0.2154714490
[2.0000e+00 2.0000e+00 2.0000e+00 2.0000e+00 1.9324e+00 1.8032e+00
 1.8016e+00 1.2335e+00 1.2317e+00 7.5286e-01 7.5112e-01 3.7650e-01
 8.3125e-02 1.6861e-02 1.6226e-02 7.8013e-04]
entropy correction =  -0.042041497979073854
cycle= 20 E= -12.7739165851966  delta_E= -2.19e-09  |g|= 1.29e-05  |ddm|= 0.000108
HOMO:  -0.2178312231115577 LUMO:  -0.21294735941307757
Fermi energy:      -0.2154710382
[2.0000e+00 2.0000e+00 2.0000e+00 2.0000e+00 1.9324e+00 1.8032e+00
 1.8016e+00 1.2335e+00 1.2317e+00 7.5286e-01 7.5111e-01 3.7650e-01
 8.3125e-02 1.6861e-02 1.6226e-02 7.8014e-04]
entropy correction =  -0.04204130756338379
cycle= 21 E= -12.7739165852432  delta_E= -4.66e-11  |g|= 1.17e-05  |ddm|= 4.7e-05
HOMO:  -0.21783228710489141 LUMO:  -0.21294850134693502
Fermi energy:      -0.2154720587
[2.0000e+00 2.0000e+00 2.0000e+00 2.0000e+00 1.9324e+00 1.8032e+00
 1.8016e+00 1.2335e+00 1.2317e+00 7.5287e-01 7.5115e-01 3.7650e-01
 8.3124e-02 1.6861e-02 1.6226e-02 7.8010e-04]
entropy correction =  -0.04204197165864522
Extra cycle  E= -12.7739165809324  delta_E= 4.31e-09  |g|= 7.72e-05  |ddm|= 0.000165
degenerate subspace detected:
nsub = 2
subspace 1:
8, 9, 
subspace 2:
11, 12, 

 Adding contributions from fluctuation of occupation numbers.
degenerate subspace detected:
nsub = 4
subspace 1:
1, 2, 
subspace 2:
6, 7, 
subspace 3:
8, 9, 
subspace 4:
10, 11, 

 Adding contributions from fluctuation of occupation numbers.
entropy correction =  -0.04204197165864522
2-norm (grad),       max(grad):
0.049960235419218006 ,  0.0041295630080141615
time of hessian construction : 31.630  (cpu),  1.369  (wall) 
time of hessian construction : 26.490  (cpu),  0.664  (wall) 
f =  0.0012480125615718426
|umat| =  3.104548123272424
rks_ao.ne_frozen =  0
Set gradient conv threshold to 3.16228e-05
Initial guess from hcore.
HOMO:  -3.6313216367160623 LUMO:  -3.5952518697958937
Fermi energy:      -3.6132866666
[2.     2.     2.     2.     2.     2.     2.     2.     1.9472 0.0528]
tot grids = 190200
init E= -24.3930213293307
HOMO:  -0.40438640684221466 LUMO:  -0.3663774776497999
Fermi energy:      -0.3847617989
[2.0000e+00 2.0000e+00 2.0000e+00 2.0000e+00 2.0000e+00 2.0000e+00
 2.0000e+00 1.9881e+00 1.9613e+00 4.9356e-02 1.2031e-03]
entropy correction =  -0.0025282706621057925
cycle= 1 E= -25.7687907801454  delta_E= -1.38  |g|= 1.89  |ddm|= 39.5
HOMO:  -0.9828065768511791 LUMO:  -0.9069753865707941
Fermi energy:      -0.9447903377
[2.0000e+00 2.0000e+00 2.0000e+00 2.0000e+00 2.0000e+00 2.0000e+00
 2.0000e+00 2.0000e+00 1.9990e+00 1.0381e-03]
entropy correction =  -8.975786545446244e-05
cycle= 2 E= -26.799993790192  delta_E= -1.03  |g|=  1.4  |ddm|= 17.4
HOMO:  -0.7678078261021006 LUMO:  -0.6593606465542293
Fermi energy:      -0.7143813696
[2. 2. 2. 2. 2. 2. 2. 2. 2.]
entropy correction =  -5.500908833158188e-06
cycle= 3 E= -27.1782372152403  delta_E= -0.378  |g|= 0.795  |ddm|= 9.77
HOMO:  -0.714103562075176 LUMO:  -0.6545314131610047
Fermi energy:      -0.6842978678
[2.     2.     2.     2.     2.     2.     2.     2.     1.9949 0.0052]
entropy correction =  -0.00036187977812584794
cycle= 4 E= -27.4402603494458  delta_E= -0.262  |g|= 0.101  |ddm|= 2.96
HOMO:  -0.7325349837775578 LUMO:  -0.6750281182221005
Fermi energy:      -0.7036946732
[2.     2.     2.     2.     2.     2.     2.     1.9998 1.9938 0.0065]
entropy correction =  -0.0004394733337421416
cycle= 5 E= -27.4409664296485  delta_E= -0.000706  |g|= 0.0874  |ddm|= 0.651
HOMO:  -0.7324886639197047 LUMO:  -0.6743270696044469
Fermi energy:      -0.7033585140
[2.     2.     2.     2.     2.     2.     2.     1.9999 1.9941 0.006 ]
entropy correction =  -0.0004114435055621401
cycle= 6 E= -27.4434069092639  delta_E= -0.00244  |g|= 0.0329  |ddm|= 0.233
HOMO:  -0.73189581752476 LUMO:  -0.6736570164469282
Fermi energy:      -0.7027271044
[2.     2.     2.     2.     2.     2.     2.     1.9999 1.9942 0.006 ]
entropy correction =  -0.00040874518616894394
cycle= 7 E= -27.4436304095854  delta_E= -0.000224  |g|= 0.0224  |ddm|= 0.0509
HOMO:  -0.7323269694971927 LUMO:  -0.6744419020794378
Fermi energy:      -0.7033338542
[2.     2.     2.     2.     2.     2.     2.     1.9999 1.994  0.0062]
entropy correction =  -0.0004213681270728858
cycle= 8 E= -27.4438571100287  delta_E= -0.000227  |g|= 0.00339  |ddm|= 0.105
HOMO:  -0.7321897782827396 LUMO:  -0.6743199940861256
Fermi energy:      -0.7032051901
[2.     2.     2.     2.     2.     2.     2.     1.9999 1.9939 0.0062]
entropy correction =  -0.00042181288957949615
cycle= 9 E= -27.4438635055541  delta_E= -6.4e-06  |g|= 0.000965  |ddm|= 0.0218
HOMO:  -0.7322512168425499 LUMO:  -0.6743207699239693
Fermi energy:      -0.7032361367
[2.     2.     2.     2.     2.     2.     2.     1.9999 1.994  0.0061]
entropy correction =  -0.0004196614296527352
cycle= 10 E= -27.4438639879727  delta_E= -4.82e-07  |g|= 0.000185  |ddm|= 0.00471
HOMO:  -0.7322458171416756 LUMO:  -0.674331663193206
Fermi energy:      -0.7032389086
[2.     2.     2.     2.     2.     2.     2.     1.9999 1.994  0.0061]
entropy correction =  -0.00042024028904645377
cycle= 11 E= -27.4438640011356  delta_E= -1.32e-08  |g|= 3.59e-05  |ddm|= 0.000773
HOMO:  -0.7322437116719789 LUMO:  -0.674328946816825
Fermi energy:      -0.7032365175
[2.     2.     2.     2.     2.     2.     2.     1.9999 1.994  0.0061]
entropy correction =  -0.00042021613074355834
cycle= 12 E= -27.4438640016621  delta_E= -5.27e-10  |g|= 3.5e-06  |ddm|= 0.000151
HOMO:  -0.7322434769754698 LUMO:  -0.6743286150316414
Fermi energy:      -0.7032362320
[2.     2.     2.     2.     2.     2.     2.     1.9999 1.994  0.0061]
entropy correction =  -0.0004202129308479904
Extra cycle  E= -27.443864001662  delta_E= 1.07e-13  |g|= 3.61e-06  |ddm|= 2.79e-05
entropy correction =  -0.0004202129308479904
rks_ao.ne_frozen =  0
Set gradient conv threshold to 3.16228e-05
Initial guess from hcore.
HOMO:  -2.731488558597439 LUMO:  -2.721964489115536
Fermi energy:      -2.7265504640
[2.     2.     2.     2.     2.     2.     2.     1.9717 1.4572 0.5711]
tot grids = 190200
init E= -26.9553437310911
HOMO:  -0.31140594407880057 LUMO:  -0.2643798447002959
Fermi energy:      -0.2878928944
[2.    2.    2.    2.    2.    2.    2.    2.    1.982 0.018]
entropy correction =  -0.0010261442159012469
cycle= 1 E= -28.3530365325119  delta_E= -1.4  |g|= 1.22  |ddm|= 17.8
HOMO:  -0.5228058019230045 LUMO:  -0.4994545301704012
Fermi energy:      -0.5111272813
[2.     2.     2.     2.     2.     2.     2.     1.9998 1.8236 0.1766]
entropy correction =  -0.0059835285860414
cycle= 2 E= -28.2038193349019  delta_E= 0.149  |g|=  1.2  |ddm|= 7.94
HOMO:  -0.45342194308611145 LUMO:  -0.42636096827971404
Fermi energy:      -0.4400937138
[2.     2.     2.     2.     2.     2.     2.     2.     1.8699 0.1206
 0.0095]
entropy correction =  -0.004985511102076504
cycle= 3 E= -28.7146789822209  delta_E= -0.511  |g|= 0.425  |ddm|= 4.18
HOMO:  -0.43812626107834773 LUMO:  -0.400025100815746
Fermi energy:      -0.4191861056
[2.0000e+00 2.0000e+00 2.0000e+00 2.0000e+00 2.0000e+00 2.0000e+00
 2.0000e+00 2.0000e+00 1.9557e+00 4.2405e-02 1.8390e-03]
entropy correction =  -0.002164900360659058
cycle= 4 E= -28.7614534821119  delta_E= -0.0468  |g|= 0.259  |ddm|= 2.56
HOMO:  -0.4324435410758721 LUMO:  -0.40076850607197195
Fermi energy:      -0.4167025721
[2.     2.     2.     2.     2.     2.     2.     2.     1.9177 0.0793
 0.003 ]
entropy correction =  -0.003498557295779702
cycle= 5 E= -28.7782852365021  delta_E= -0.0168  |g|= 0.139  |ddm|= 1.53
HOMO:  -0.43315999805556865 LUMO:  -0.403645369215617
Fermi energy:      -0.4185392073
[2.     2.     2.     2.     2.     2.     2.     2.     1.8981 0.0968
 0.0051]
entropy correction =  -0.004131440078252545
cycle= 6 E= -28.7868099836669  delta_E= -0.00852  |g|= 0.0913  |ddm|= 0.945
HOMO:  -0.4340568759038112 LUMO:  -0.4033963041467128
Fermi energy:      -0.4188431191
[2.     2.     2.     2.     2.     2.     2.     2.     1.9089 0.0871
 0.0039]
entropy correction =  -0.0037861964165812464
cycle= 7 E= -28.7897472414389  delta_E= -0.00294  |g|= 0.0154  |ddm|= 0.29
HOMO:  -0.4331470729392018 LUMO:  -0.4023349852686876
Fermi energy:      -0.4178703120
[2.     2.     2.     2.     2.     2.     2.     2.     1.91   0.0856
 0.0043]
entropy correction =  -0.003758464695609271
cycle= 8 E= -28.7898420925173  delta_E= -9.49e-05  |g|= 0.00591  |ddm|= 0.0981
HOMO:  -0.4329185637670999 LUMO:  -0.4022847030150532
Fermi energy:      -0.4177237229
[2.     2.     2.     2.     2.     2.     2.     2.     1.9086 0.0872
 0.0041]
entropy correction =  -0.003799363459110759
cycle= 9 E= -28.7898557508857  delta_E= -1.37e-05  |g|= 0.00316  |ddm|= 0.0332
HOMO:  -0.4329223872455236 LUMO:  -0.4021801875470408
Fermi energy:      -0.4176754477
[2.     2.     2.     2.     2.     2.     2.     2.     1.9095 0.0863
 0.0042]
entropy correction =  -0.003772053096191711
cycle= 10 E= -28.789858915965  delta_E= -3.17e-06  |g|= 0.000702  |ddm|= 0.0114
HOMO:  -0.4329280939339801 LUMO:  -0.4022133275136331
Fermi energy:      -0.4176945760
[2.     2.     2.     2.     2.     2.     2.     2.     1.9093 0.0865
 0.0042]
entropy correction =  -0.0037791941881973657
cycle= 11 E= -28.7898591365172  delta_E= -2.21e-07  |g|= 0.000156  |ddm|= 0.00339
HOMO:  -0.43292321048666205 LUMO:  -0.40220818742428616
Fermi energy:      -0.4176898148
[2.     2.     2.     2.     2.     2.     2.     2.     1.9093 0.0865
 0.0042]
entropy correction =  -0.0037793895074124534
cycle= 12 E= -28.7898591452462  delta_E= -8.73e-09  |g|= 7.25e-05  |ddm|= 0.00109
HOMO:  -0.4329249007241097 LUMO:  -0.4022096239698078
Fermi energy:      -0.4176912857
[2.     2.     2.     2.     2.     2.     2.     2.     1.9093 0.0865
 0.0042]
entropy correction =  -0.0037792228037126026
cycle= 13 E= -28.7898591475047  delta_E= -2.26e-09  |g|= 4.55e-06  |ddm|= 0.000354
HOMO:  -0.43292492993379017 LUMO:  -0.4022096504151921
Fermi energy:      -0.4176913115
[2.     2.     2.     2.     2.     2.     2.     2.     1.9093 0.0865
 0.0042]
entropy correction =  -0.003779219897301536
cycle= 14 E= -28.7898591475166  delta_E= -1.19e-11  |g|= 3.88e-07  |ddm|= 2.26e-05
HOMO:  -0.43292492723858356 LUMO:  -0.40220964138970194
Fermi energy:      -0.4176913062
[2.     2.     2.     2.     2.     2.     2.     2.     1.9093 0.0865
 0.0042]
entropy correction =  -0.003779218805339909
Extra cycle  E= -28.7898591475162  delta_E= 3.27e-13  |g|= 5.04e-07  |ddm|= 3.42e-06
 Adding contributions from fluctuation of occupation numbers.
 Adding contributions from fluctuation of occupation numbers.
entropy correction =  -0.003779218805339909
2-norm (grad),       max(grad):
140.0667586274649 ,  31.89941648972182
time of hessian construction : 14.500  (cpu),  0.364  (wall) 
time of hessian construction : 15.330  (cpu),  0.384  (wall) 
f =  9809.348436202257
|umat| =  2.748220596609148
rks_ao.ne_frozen =  0
Set gradient conv threshold to 3.16228e-05
Initial guess from hcore.
HOMO:  -3.5072784855084658 LUMO:  -3.315597645572274
Fermi energy:      -3.4105774618
[2. 2. 2. 2. 2. 2. 2. 2. 2.]
tot grids = 190200
init E= -10.144928261776
HOMO:  -0.07290139170759392 LUMO:  -0.06868623227390848
Fermi energy:      -0.0743896756
[2.     2.     2.     2.     2.     2.     1.9999 1.941  0.8523 0.4844
 0.4163 0.3061]
entropy correction =  -0.023089756552196295
cycle= 1 E= -10.1785956089853  delta_E= -0.0337  |g|= 2.78  |ddm|= 8.48
HOMO:  -0.7978663766762878 LUMO:  -0.6670556737061483
Fermi energy:      -0.7319735403
[2. 2. 2. 2. 2. 2. 2. 2. 2.]
entropy correction =  -8.135209906659214e-07
cycle= 2 E= -11.5278909837926  delta_E= -1.35  |g|= 2.09  |ddm|= 7.16
HOMO:  -0.46286296163432894 LUMO:  -0.44467250039558925
Fermi energy:      -0.4517200293
[2.0000e+00 2.0000e+00 2.0000e+00 2.0000e+00 1.9987e+00 1.9926e+00
 1.9851e+00 1.8174e+00 1.8056e+00 3.9262e-01 6.7026e-03 7.8557e-04
 4.3851e-04]
entropy correction =  -0.012213619215714885
cycle= 3 E= -13.1373798363084  delta_E= -1.61  |g|= 0.759  |ddm|= 4.13
HOMO:  -0.41656265384719454 LUMO:  -0.3890315410532317
Fermi energy:      -0.4019914028
[2.     2.     2.     2.     2.     1.9991 1.9985 1.9485 1.8971 0.1393
 0.0176]
entropy correction =  -0.0063609135714764176
cycle= 4 E= -11.8360885606773  delta_E=  1.3  |g|= 1.63  |ddm|= 3.37
HOMO:  -0.41100370463386016 LUMO:  -0.400885488548325
Fermi energy:      -0.4046826221
[2.0000e+00 2.0000e+00 1.9999e+00 1.9998e+00 1.9883e+00 1.9876e+00
 1.9366e+00 1.8591e+00 1.5595e+00 6.3754e-01 1.7899e-02 1.2141e-02
 1.4730e-03 1.6125e-04]
entropy correction =  -0.017186228596933806
cycle= 5 E= -13.3751997104777  delta_E= -1.54  |g|= 0.38  |ddm|= 2.52
HOMO:  -0.3850993412769989 LUMO:  -0.3766532779016127
Fermi energy:      -0.3794137949
[2.0000e+00 1.9999e+00 1.9998e+00 1.9989e+00 1.9859e+00 1.9792e+00
 1.8995e+00 1.8458e+00 1.5143e+00 7.3075e-01 3.5537e-02 7.7842e-03
 2.5585e-03 1.8220e-04]
entropy correction =  -0.019132535194600758
cycle= 6 E= -12.9714991851717  delta_E= 0.404  |g|= 0.866  |ddm|= 1.73
HOMO:  -0.3791167466471156 LUMO:  -0.37446039449346963
Fermi energy:      -0.3757017371
[2.0000e+00 1.9995e+00 1.9984e+00 1.9974e+00 1.9852e+00 1.9705e+00
 1.9462e+00 1.7555e+00 1.3288e+00 8.7650e-01 9.8194e-02 3.0118e-02
 1.3154e-02 5.7030e-04]
entropy correction =  -0.022742196640059557
cycle= 7 E= -13.4286425523901  delta_E= -0.457  |g|= 0.224  |ddm|= 1.33
HOMO:  -0.37233193410790205 LUMO:  -0.3702701492294194
Fermi energy:      -0.3710581509
[2.0000e+00 1.9996e+00 1.9983e+00 1.9967e+00 1.9907e+00 1.9646e+00
 1.9387e+00 1.8881e+00 1.1267e+00 9.2136e-01 1.1366e-01 4.7748e-02
 1.3168e-02 5.8622e-04]
entropy correction =  -0.02240371156547768
cycle= 8 E= -13.3810118128903  delta_E= 0.0476  |g|= 0.356  |ddm|= 0.87
HOMO:  -0.3682693120088279 LUMO:  -0.3662767572129878
Fermi energy:      -0.3667904890
[2.0000e+00 1.9998e+00 1.9979e+00 1.9930e+00 1.9867e+00 1.9685e+00
 1.9397e+00 1.8162e+00 1.1468e+00 9.4867e-01 1.1522e-01 7.0557e-02
 1.6302e-02 6.6911e-04]
entropy correction =  -0.02393346980443879
cycle= 9 E= -13.4383464893078  delta_E= -0.0573  |g|= 0.186  |ddm|= 0.686
HOMO:  -0.3675247774370648 LUMO:  -0.3630074970761682
Fermi energy:      -0.3646761577
[2.0000e+00 1.9993e+00 1.9961e+00 1.9922e+00 1.9836e+00 1.9690e+00
 1.9463e+00 1.7885e+00 1.2774e+00 8.3467e-01 1.6363e-01 3.0469e-02
 1.7811e-02 1.0214e-03]
entropy correction =  -0.023822812058161832
cycle= 10 E= -13.4540485208974  delta_E= -0.0157  |g|= 0.107  |ddm|= 0.427
HOMO:  -0.36854046050195727 LUMO:  -0.36565616397345413
Fermi energy:      -0.3663127444
[2.0000e+00 1.9993e+00 1.9970e+00 1.9923e+00 1.9835e+00 1.9449e+00
 1.9398e+00 1.8294e+00 1.2192e+00 9.3444e-01 1.0628e-01 3.4996e-02
 1.8025e-02 7.8975e-04]
entropy correction =  -0.023504308576419698
cycle= 11 E= -13.4613530921236  delta_E= -0.0073  |g|= 0.0509  |ddm|= 0.34
HOMO:  -0.36781451801270115 LUMO:  -0.365116661917073
Fermi energy:      -0.3658086541
[2.0000e+00 1.9993e+00 1.9959e+00 1.9917e+00 1.9802e+00 1.9613e+00
 1.9384e+00 1.8055e+00 1.1979e+00 9.3091e-01 1.4565e-01 3.8904e-02
 1.3535e-02 7.7371e-04]
entropy correction =  -0.024173985669318523
cycle= 12 E= -13.4615269294196  delta_E= -0.000174  |g|= 0.0479  |ddm|= 0.254
HOMO:  -0.36744859264442314 LUMO:  -0.36451870539213393
Fermi energy:      -0.3653314684
[2.0000e+00 1.9993e+00 1.9963e+00 1.9914e+00 1.9833e+00 1.9562e+00
 1.9417e+00 1.8141e+00 1.2086e+00 9.1890e-01 1.3246e-01 3.7179e-02
 1.9733e-02 8.5536e-04]
entropy correction =  -0.023956353140382292
cycle= 13 E= -13.4635421669099  delta_E= -0.00202  |g|= 0.0238  |ddm|= 0.152
HOMO:  -0.3674832391701724 LUMO:  -0.3645315750674239
Fermi energy:      -0.3653500982
[2.0000e+00 1.9992e+00 1.9962e+00 1.9912e+00 1.9816e+00 1.9546e+00
 1.9396e+00 1.8163e+00 1.2101e+00 9.1833e-01 1.3789e-01 3.6264e-02
 1.7865e-02 8.6631e-04]
entropy correction =  -0.02405690570728139
cycle= 14 E= -13.4639391361169  delta_E= -0.000397  |g|= 0.00695  |ddm|= 0.0619
HOMO:  -0.36770966755033513 LUMO:  -0.364803957611383
Fermi energy:      -0.3655938693
[2.0000e+00 1.9993e+00 1.9962e+00 1.9916e+00 1.9825e+00 1.9545e+00
 1.9403e+00 1.8159e+00 1.2085e+00 9.2117e-01 1.3479e-01 3.6452e-02
 1.7976e-02 8.5006e-04]
entropy correction =  -0.023986504451623567
cycle= 15 E= -13.4639813744866  delta_E= -4.22e-05  |g|= 0.00311  |ddm|= 0.0245
HOMO:  -0.3677549727398308 LUMO:  -0.3647929257642932
Fermi energy:      -0.3656059588
[2.0000e+00 1.9992e+00 1.9962e+00 1.9915e+00 1.9824e+00 1.9545e+00
 1.9405e+00 1.8157e+00 1.2117e+00 9.1888e-01 1.3453e-01 3.6222e-02
 1.7813e-02 8.4779e-04]
entropy correction =  -0.023970441724193103
cycle= 16 E= -13.4639878605543  delta_E= -6.49e-06  |g|= 0.00131  |ddm|= 0.00852
HOMO:  -0.367732964440954 LUMO:  -0.3647938960615584
Fermi energy:      -0.3655990866
[2.0000e+00 1.9992e+00 1.9962e+00 1.9915e+00 1.9824e+00 1.9546e+00
 1.9401e+00 1.8160e+00 1.2102e+00 9.1965e-01 1.3509e-01 3.6360e-02
 1.7809e-02 8.4900e-04]
entropy correction =  -0.02398669446922327
cycle= 17 E= -13.4639887492421  delta_E= -8.89e-07  |g|= 0.000987  |ddm|= 0.00472
HOMO:  -0.36772722793856744 LUMO:  -0.364788603084505
Fermi energy:      -0.3655907002
[2.0000e+00 1.9992e+00 1.9962e+00 1.9915e+00 1.9823e+00 1.9544e+00
 1.9402e+00 1.8158e+00 1.2105e+00 9.1996e-01 1.3488e-01 3.6265e-02
 1.7833e-02 8.4825e-04]
entropy correction =  -0.02398673419465907
cycle= 18 E= -13.4639892540982  delta_E= -5.05e-07  |g|= 0.000537  |ddm|= 0.00228
HOMO:  -0.3677072518535521 LUMO:  -0.36478019292717606
Fermi energy:      -0.3655775375
[2.0000e+00 1.9992e+00 1.9962e+00 1.9915e+00 1.9823e+00 1.9545e+00
 1.9403e+00 1.8158e+00 1.2098e+00 9.2043e-01 1.3487e-01 3.6336e-02
 1.7856e-02 8.4713e-04]
entropy correction =  -0.023988052162440068
cycle= 19 E= -13.4639892491617  delta_E= 4.94e-09  |g|= 0.000435  |ddm|= 0.00223
HOMO:  -0.3677178325600318 LUMO:  -0.36478713724114026
Fermi energy:      -0.3655862701
[2.0000e+00 1.9992e+00 1.9962e+00 1.9915e+00 1.9823e+00 1.9544e+00
 1.9402e+00 1.8160e+00 1.2100e+00 9.2026e-01 1.3480e-01 3.6372e-02
 1.7821e-02 8.4836e-04]
entropy correction =  -0.023986546412340496
cycle= 20 E= -13.4639893734798  delta_E= -1.24e-07  |g|= 0.000315  |ddm|= 0.00175
HOMO:  -0.3677187642898419 LUMO:  -0.36478385841030353
Fermi energy:      -0.3655852882
[2.0000e+00 1.9992e+00 1.9962e+00 1.9915e+00 1.9823e+00 1.9545e+00
 1.9402e+00 1.8159e+00 1.2102e+00 9.2003e-01 1.3493e-01 3.6328e-02
 1.7824e-02 8.4824e-04]
entropy correction =  -0.023986928798632665
cycle= 21 E= -13.4639894582317  delta_E= -8.48e-08  |g|= 0.000113  |ddm|= 0.000901
HOMO:  -0.3677216676378011 LUMO:  -0.3647863865757428
Fermi energy:      -0.3655878278
[2.0000e+00 1.9992e+00 1.9962e+00 1.9915e+00 1.9823e+00 1.9545e+00
 1.9402e+00 1.8159e+00 1.2102e+00 9.2003e-01 1.3488e-01 3.6315e-02
 1.7828e-02 8.4816e-04]
entropy correction =  -0.02398581594051706
cycle= 22 E= -13.4639894689608  delta_E= -1.07e-08  |g|= 4.42e-05  |ddm|= 0.000303
HOMO:  -0.3677189838353645 LUMO:  -0.36478365571965565
Fermi energy:      -0.3655851567
[2.0000e+00 1.9992e+00 1.9962e+00 1.9915e+00 1.9823e+00 1.9545e+00
 1.9402e+00 1.8159e+00 1.2102e+00 9.2002e-01 1.3491e-01 3.6317e-02
 1.7836e-02 8.4836e-04]
entropy correction =  -0.023986661605939454
cycle= 23 E= -13.4639894685235  delta_E= 4.37e-10  |g|= 4.28e-05  |ddm|= 0.000165
HOMO:  -0.3677203432689903 LUMO:  -0.3647854497068327
Fermi energy:      -0.3655867425
[2.0000e+00 1.9992e+00 1.9962e+00 1.9915e+00 1.9823e+00 1.9545e+00
 1.9402e+00 1.8159e+00 1.2102e+00 9.2004e-01 1.3489e-01 3.6321e-02
 1.7834e-02 8.4823e-04]
entropy correction =  -0.02398616076668721
cycle= 24 E= -13.4639894696466  delta_E= -1.12e-09  |g|= 2.78e-05  |ddm|= 0.000162
HOMO:  -0.3677211490893894 LUMO:  -0.36478552860044233
Fermi energy:      -0.3655871335
[2.0000e+00 1.9992e+00 1.9962e+00 1.9915e+00 1.9823e+00 1.9545e+00
 1.9402e+00 1.8159e+00 1.2102e+00 9.2001e-01 1.3488e-01 3.6318e-02
 1.7831e-02 8.4816e-04]
entropy correction =  -0.02398594561773049
cycle= 25 E= -13.4639894687542  delta_E= 8.92e-10  |g|= 4.77e-05  |ddm|= 0.000137
HOMO:  -0.3677201640730477 LUMO:  -0.3647850900367007
Fermi energy:      -0.3655864926
[2.0000e+00 1.9992e+00 1.9962e+00 1.9915e+00 1.9823e+00 1.9545e+00
 1.9402e+00 1.8159e+00 1.2102e+00 9.2003e-01 1.3490e-01 3.6321e-02
 1.7831e-02 8.4823e-04]
entropy correction =  -0.023986284897513577
cycle= 26 E= -13.4639894702095  delta_E= -1.46e-09  |g|= 1.75e-05  |ddm|= 0.000101
HOMO:  -0.36772026902621213 LUMO:  -0.3647852197170073
Fermi energy:      -0.3655865290
[2.0000e+00 1.9992e+00 1.9962e+00 1.9915e+00 1.9823e+00 1.9545e+00
 1.9402e+00 1.8159e+00 1.2102e+00 9.2004e-01 1.3489e-01 3.6318e-02
 1.7832e-02 8.4820e-04]
entropy correction =  -0.02398632014211378
cycle= 27 E= -13.4639894702465  delta_E= -3.7e-11  |g|= 1.67e-05  |ddm|= 5.28e-05
HOMO:  -0.3677202107685974 LUMO:  -0.36478476975582397
Fermi energy:      -0.3655865859
[2.0000e+00 1.9992e+00 1.9962e+00 1.9915e+00 1.9823e+00 1.9545e+00
 1.9402e+00 1.8159e+00 1.2102e+00 9.1999e-01 1.3491e-01 3.6327e-02
 1.7832e-02 8.4827e-04]
entropy correction =  -0.02398612027327158
Extra cycle  E= -13.4639894576227  delta_E= 1.26e-08  |g|= 0.000138  |ddm|= 0.000248
entropy correction =  -0.02398612027327158
rks_ao.ne_frozen =  0
Set gradient conv threshold to 3.16228e-05
Initial guess from hcore.
HOMO:  -2.5819858983092265 LUMO:  -2.569936706646105
Fermi energy:      -2.5761573268
[2.0000e+00 2.0000e+00 2.0000e+00 2.0000e+00 2.0000e+00 2.0000e+00
 2.0000e+00 1.9897e+00 1.5247e+00 4.4744e-01 2.5657e-02 9.8689e-03
 2.3609e-03 2.4594e-04]
tot grids = 190200
init E= -9.73672717520558
HOMO:  0.009847257850793916 LUMO:  0.01707488617944084
Fermi energy:       0.0116993463
[2.0000e+00 2.0000e+00 2.0000e+00 2.0000e+00 2.0000e+00 2.0000e+00
 1.9999e+00 1.8936e+00 1.1831e+00 5.0887e-01 2.2090e-01 1.0351e-01
 6.5308e-02 2.2406e-02 1.4182e-03 7.2990e-04]
entropy correction =  -0.02218183986339569
cycle= 1 E= -10.930731934712  delta_E= -1.19  |g|= 2.15  |ddm|=  9.7
HOMO:  -0.46156600597236996 LUMO:  -0.4533469817888104
Fermi energy:      -0.4574642555
[2.     2.     2.     2.     2.     2.     1.9999 1.9985 1.3886 0.6101
 0.0029]
entropy correction =  -0.012491670933981392
cycle= 2 E= -7.28382837329999  delta_E= 3.65  |g|= 2.95  |ddm|= 9.25
HOMO:  -0.40676080341887205 LUMO:  -0.3734279425402625
Fermi energy:      -0.3898210651
[2.0000e+00 2.0000e+00 2.0000e+00 2.0000e+00 2.0000e+00 1.9995e+00
 1.9934e+00 1.9787e+00 1.9347e+00 7.2624e-02 2.0251e-02 5.2781e-04
 2.5426e-04]
entropy correction =  -0.004438311177313979
cycle= 3 E= -10.8986502126894  delta_E= -3.61  |g|= 1.95  |ddm|= 2.29
HOMO:  -0.36405256322806 LUMO:  -0.3386005643006872
Fermi energy:      -0.3519408920
[2.0000e+00 2.0000e+00 2.0000e+00 2.0000e+00 2.0000e+00 1.9999e+00
 1.9979e+00 1.9952e+00 1.8370e+00 1.2977e-01 3.9315e-02 8.6157e-04]
entropy correction =  -0.006490870851158639
cycle= 4 E= -9.76022405356779  delta_E= 1.14  |g|= 2.21  |ddm|= 1.34
HOMO:  -0.33575210922391346 LUMO:  -0.30826667713797445
Fermi energy:      -0.3225964874
[2.0000e+00 2.0000e+00 2.0000e+00 2.0000e+00 2.0000e+00 1.9999e+00
 1.9957e+00 1.9876e+00 1.8657e+00 1.0772e-01 3.9543e-02 3.6709e-03
 1.6001e-04]
entropy correction =  -0.00621454382304825
cycle= 5 E= -10.6466002962067  delta_E= -0.886  |g|= 1.88  |ddm|= 0.852
HOMO:  -0.3113329593152488 LUMO:  -0.2897348503563736
Fermi energy:      -0.2994792555
[2.0000e+00 2.0000e+00 2.0000e+00 2.0000e+00 2.0000e+00 1.9964e+00
 1.9846e+00 1.9105e+00 1.8291e+00 2.4935e-01 2.7357e-02 1.4668e-03
[...]
HOMO:  -0.3661074615081714 LUMO:  -0.3652954246681162
Fermi energy:      -0.3663718051
[2.0000e+00 1.9994e+00 1.9908e+00 1.9900e+00 1.9709e+00 1.9562e+00
 1.9461e+00 1.0477e+00 9.7357e-01 8.9278e-01 5.8148e-01 5.5588e-01
 9.4885e-02 2.2892e-04]
entropy correction =  -0.038267969984297795
cycle= 7 E= -13.3932563989918  delta_E= 0.00207  |g|= 0.0691  |ddm|= 0.257
HOMO:  -0.3674244469436305 LUMO:  -0.3654548299941337
Fermi energy:      -0.3670655846
[2.0000e+00 1.9993e+00 1.9912e+00 1.9908e+00 1.9650e+00 1.9572e+00
 1.9418e+00 1.0639e+00 1.0359e+00 8.4030e-01 5.7019e-01 5.5333e-01
 9.0955e-02 2.4042e-04]
entropy correction =  -0.03821913139932134
cycle= 8 E= -13.3946582848517  delta_E= -0.0014  |g|= 0.0604  |ddm|= 0.178
HOMO:  -0.367471512005347 LUMO:  -0.36536222498889875
Fermi energy:      -0.3670442870
[2.0000e+00 1.9992e+00 1.9915e+00 1.9900e+00 1.9618e+00 1.9604e+00
 1.9405e+00 1.0509e+00 1.0427e+00 8.3336e-01 5.7202e-01 5.6593e-01
 9.1454e-02 2.4293e-04]
entropy correction =  -0.038326638530350995
cycle= 9 E= -13.3970289929986  delta_E= -0.00237  |g|= 0.0206  |ddm|= 0.109
HOMO:  -0.36684399766119824 LUMO:  -0.36500027173501737
Fermi energy:      -0.3665474206
[2.0000e+00 1.9991e+00 1.9910e+00 1.9890e+00 1.9615e+00 1.9609e+00
 1.9387e+00 1.0366e+00 1.0296e+00 8.4651e-01 5.8000e-01 5.7480e-01
 9.1985e-02 2.4371e-04]
entropy correction =  -0.03851426511027741
cycle= 10 E= -13.3969852657317  delta_E= 4.37e-05  |g|= 0.0233  |ddm|= 0.0574
HOMO:  -0.3657961186869793 LUMO:  -0.3645715189434572
Fermi energy:      -0.3658275016
[2.0000e+00 1.9991e+00 1.9902e+00 1.9879e+00 1.9630e+00 1.9616e+00
 1.9374e+00 1.0065e+00 9.9686e-01 8.7506e-01 5.9791e-01 5.8874e-01
 9.5637e-02 2.4153e-04]
entropy correction =  -0.038792654803024774
cycle= 11 E= -13.3973738000626  delta_E= -0.000389  |g|= 0.00319  |ddm|= 0.0535
HOMO:  -0.36557246171761015 LUMO:  -0.36441727277285924
Fermi energy:      -0.3656717175
[2.0000e+00 1.9991e+00 1.9897e+00 1.9883e+00 1.9635e+00 1.9615e+00
 1.9376e+00 1.0090e+00 9.9007e-01 8.7521e-01 5.9754e-01 5.9249e-01
 9.5784e-02 2.4249e-04]
entropy correction =  -0.03879963159195445
cycle= 12 E= -13.3973204912536  delta_E= 5.33e-05  |g|= 0.00695  |ddm|= 0.0308
HOMO:  -0.36584027986941464 LUMO:  -0.3645204134447542
Fermi energy:      -0.3658199552
[2.0000e+00 1.9991e+00 1.9902e+00 1.9882e+00 1.9629e+00 1.9617e+00
 1.9380e+00 1.0071e+00 1.0020e+00 8.7077e-01 5.9674e-01 5.8767e-01
 9.5434e-02 2.4254e-04]
entropy correction =  -0.03875502525429266
cycle= 13 E= -13.3973816326345  delta_E= -6.11e-05  |g|= 0.00199  |ddm|= 0.0249
HOMO:  -0.36586525190558344 LUMO:  -0.3645239500059079
Fermi energy:      -0.3658240051
[2.0000e+00 1.9991e+00 1.9902e+00 1.9882e+00 1.9630e+00 1.9616e+00
 1.9380e+00 1.0051e+00 1.0041e+00 8.7072e-01 5.9600e-01 5.8836e-01
 9.5441e-02 2.4255e-04]
entropy correction =  -0.038755286497036495
cycle= 14 E= -13.3973857797279  delta_E= -4.15e-06  |g|= 0.000364  |ddm|= 0.00579
HOMO:  -0.3658571469836988 LUMO:  -0.36452251776483247
Fermi energy:      -0.3658212608
[2.0000e+00 1.9991e+00 1.9902e+00 1.9882e+00 1.9630e+00 1.9616e+00
 1.9380e+00 1.0051e+00 1.0036e+00 8.7085e-01 5.9627e-01 5.8837e-01
 9.5458e-02 2.4243e-04]
entropy correction =  -0.038755090900635766
cycle= 15 E= -13.397381695822  delta_E= 4.08e-06  |g|= 0.00243  |ddm|= 0.00408
HOMO:  -0.3658646375389341 LUMO:  -0.3645302924569268
Fermi energy:      -0.3658281735
[2.0000e+00 1.9991e+00 1.9902e+00 1.9882e+00 1.9630e+00 1.9615e+00
 1.9379e+00 1.0053e+00 1.0036e+00 8.7094e-01 5.9624e-01 5.8821e-01
 9.5466e-02 2.4261e-04]
entropy correction =  -0.03875715973730122
cycle= 16 E= -13.3973856274853  delta_E= -3.93e-06  |g|= 0.000526  |ddm|= 0.00363
HOMO:  -0.3658739632772948 LUMO:  -0.3645350150948785
Fermi energy:      -0.3658332151
[2.0000e+00 1.9991e+00 1.9902e+00 1.9882e+00 1.9629e+00 1.9616e+00
 1.9379e+00 1.0051e+00 1.0041e+00 8.7090e-01 5.9595e-01 5.8833e-01
 9.5464e-02 2.4268e-04]
entropy correction =  -0.038757506343814634
cycle= 17 E= -13.3973857542169  delta_E= -1.27e-07  |g|= 0.000398  |ddm|= 0.00177
HOMO:  -0.36587715826480993 LUMO:  -0.36453688500432474
Fermi energy:      -0.3658361590
[2.0000e+00 1.9991e+00 1.9902e+00 1.9882e+00 1.9630e+00 1.9616e+00
 1.9379e+00 1.0053e+00 1.0041e+00 8.7080e-01 5.9596e-01 5.8820e-01
 9.5455e-02 2.4265e-04]
entropy correction =  -0.038755966549102655
cycle= 18 E= -13.3973858685462  delta_E= -1.14e-07  |g|= 0.000136  |ddm|= 0.000955
HOMO:  -0.3658727884294876 LUMO:  -0.3645336903851334
Fermi energy:      -0.3658325619
[2.0000e+00 1.9991e+00 1.9902e+00 1.9882e+00 1.9630e+00 1.9616e+00
 1.9379e+00 1.0052e+00 1.0040e+00 8.7084e-01 5.9602e-01 5.8829e-01
 9.5456e-02 2.4264e-04]
entropy correction =  -0.0387565839380387
cycle= 19 E= -13.3973857979024  delta_E= 7.06e-08  |g|= 0.000351  |ddm|= 0.000694
HOMO:  -0.3658700172291731 LUMO:  -0.36453188547156423
Fermi energy:      -0.3658305246
[2.0000e+00 1.9991e+00 1.9902e+00 1.9882e+00 1.9630e+00 1.9616e+00
 1.9379e+00 1.0051e+00 1.0039e+00 8.7086e-01 5.9607e-01 5.8831e-01
 9.5457e-02 2.4263e-04]
entropy correction =  -0.03875689403624096
cycle= 20 E= -13.3973858825155  delta_E= -8.46e-08  |g|= 3.25e-05  |ddm|= 0.000559
HOMO:  -0.36587149388883494 LUMO:  -0.36453254793780887
Fermi energy:      -0.3658315152
[2.0000e+00 1.9991e+00 1.9902e+00 1.9882e+00 1.9630e+00 1.9616e+00
 1.9379e+00 1.0052e+00 1.0040e+00 8.7083e-01 5.9604e-01 5.8830e-01
 9.5455e-02 2.4263e-04]
entropy correction =  -0.03875642352217189
cycle= 21 E= -13.3973858829176  delta_E= -4.02e-10  |g|= 1.91e-05  |ddm|= 0.000123
HOMO:  -0.3658715426322173 LUMO:  -0.36453274109881867
Fermi energy:      -0.3658318520
[2.0000e+00 1.9991e+00 1.9902e+00 1.9882e+00 1.9630e+00 1.9616e+00
 1.9379e+00 1.0052e+00 1.0040e+00 8.7081e-01 5.9606e-01 5.8827e-01
 9.5454e-02 2.4263e-04]
entropy correction =  -0.03875629173752468
Extra cycle  E= -13.3973858760531  delta_E= 6.86e-09  |g|= 7.61e-05  |ddm|= 0.000302
entropy correction =  -0.03875629173752468
rks_ao.ne_frozen =  0
Set gradient conv threshold to 3.16228e-05
tot grids = 190200
init E= -9.12492454149723
HOMO:  -0.18143266829107746 LUMO:  -0.17066104260190282
Fermi energy:      -0.1743799254
[2.0000e+00 2.0000e+00 2.0000e+00 2.0000e+00 1.9175e+00 1.8526e+00
 1.8515e+00 1.6116e+00 1.6077e+00 6.4436e-01 3.6781e-01 6.1804e-02
 6.0662e-02 1.1880e-02 1.1668e-02 9.2421e-04]
entropy correction =  -0.03142551778228684
cycle= 1 E= -12.4354251077984  delta_E= -3.31  |g|= 0.772  |ddm|= 5.23
HOMO:  -0.1328768522518834 LUMO:  -0.1298099417945479
Fermi energy:      -0.1289314287
[2.0000e+00 2.0000e+00 2.0000e+00 2.0000e+00 2.0000e+00 2.0000e+00
 1.9814e+00 1.3927e+00 1.3753e+00 1.0876e+00 5.0943e-02 4.6616e-02
 4.1752e-02 1.1137e-02 1.0144e-02 1.0093e-03 5.8150e-04 5.1222e-04
 2.8260e-04]
entropy correction =  -0.023847333812257877
cycle= 2 E= -12.3588118987738  delta_E= 0.0766  |g|= 0.985  |ddm|=  2.9
HOMO:  -0.21732917616386233 LUMO:  -0.20905772392864383
Fermi energy:      -0.2141689789
[2.0000e+00 2.0000e+00 2.0000e+00 2.0000e+00 1.9885e+00 1.9878e+00
 1.9674e+00 1.3129e+00 1.3059e+00 5.2918e-01 3.9143e-01 3.8742e-01
 9.5626e-02 1.6833e-02 1.5989e-02 9.9486e-04]
entropy correction =  -0.0329992357514087
cycle= 3 E= -12.7445212054943  delta_E= -0.386  |g|= 0.228  |ddm|= 1.38
HOMO:  -0.2179982824816982 LUMO:  -0.21321585388544992
Fermi energy:      -0.2157321655
[2.0000e+00 2.0000e+00 2.0000e+00 2.0000e+00 1.9309e+00 1.8357e+00
 1.8006e+00 1.2265e+00 1.2228e+00 7.5355e-01 7.4520e-01 3.6173e-01
 9.0066e-02 1.6366e-02 1.5816e-02 7.9648e-04]
entropy correction =  -0.04170298158545615
cycle= 4 E= -12.7678087260217  delta_E= -0.0233  |g|= 0.0859  |ddm|= 0.545
HOMO:  -0.2181141699461714 LUMO:  -0.21346463075645158
Fermi energy:      -0.2157770886
[2.0000e+00 2.0000e+00 2.0000e+00 2.0000e+00 1.9358e+00 1.8144e+00
 1.7899e+00 1.2425e+00 1.2295e+00 7.7279e-01 7.1601e-01 3.8116e-01
 8.7407e-02 1.4941e-02 1.4733e-02 7.6294e-04]
entropy correction =  -0.04193820445173401
cycle= 5 E= -12.7547028227388  delta_E= 0.0131  |g|= 0.158  |ddm|= 0.359
HOMO:  -0.21775949638540584 LUMO:  -0.213133439723623
Fermi energy:      -0.2155368138
[2.0000e+00 2.0000e+00 2.0000e+00 2.0000e+00 1.9344e+00 1.8277e+00
 1.7874e+00 1.2282e+00 1.2187e+00 7.6419e-01 7.3642e-01 3.8566e-01
 8.4204e-02 1.6831e-02 1.5616e-02 7.3639e-04]
entropy correction =  -0.04198033233207712
cycle= 6 E= -12.7732928431806  delta_E= -0.0186  |g|= 0.0254  |ddm|= 0.248
HOMO:  -0.21767272563682272 LUMO:  -0.21292067029399792
Fermi energy:      -0.2153171402
[2.0000e+00 2.0000e+00 2.0000e+00 2.0000e+00 1.9330e+00 1.8383e+00
 1.7681e+00 1.2353e+00 1.2313e+00 7.6484e-01 7.3216e-01 3.7955e-01
 8.3487e-02 1.7014e-02 1.6099e-02 7.6495e-04]
entropy correction =  -0.04198268144398895
cycle= 7 E= -12.7725529554317  delta_E= 0.00074  |g|= 0.0413  |ddm|= 0.146
HOMO:  -0.21763633963349086 LUMO:  -0.2127297830242576
Fermi energy:      -0.2152876321
[2.0000e+00 2.0000e+00 2.0000e+00 2.0000e+00 1.9320e+00 1.8081e+00
 1.8015e+00 1.2370e+00 1.2306e+00 7.4965e-01 7.4512e-01 3.7812e-01
 8.3782e-02 1.6998e-02 1.6237e-02 7.8145e-04]
entropy correction =  -0.04199073373625366
cycle= 8 E= -12.7738949162944  delta_E= -0.00134  |g|= 0.00595  |ddm|= 0.102
HOMO:  -0.21780791390122675 LUMO:  -0.21296362846517125
Fermi energy:      -0.2154650170
[2.0000e+00 2.0000e+00 2.0000e+00 2.0000e+00 1.9322e+00 1.8086e+00
 1.7983e+00 1.2358e+00 1.2301e+00 7.5495e-01 7.4614e-01 3.7661e-01
 8.3509e-02 1.6889e-02 1.6206e-02 7.7318e-04]
entropy correction =  -0.042019460485148555
cycle= 9 E= -12.7738748125296  delta_E= 2.01e-05  |g|= 0.00801  |ddm|= 0.0201
HOMO:  -0.21786869391035146 LUMO:  -0.2130130179825109
Fermi energy:      -0.2155247487
[2.0000e+00 2.0000e+00 2.0000e+00 2.0000e+00 1.9322e+00 1.8038e+00
 1.8014e+00 1.2349e+00 1.2302e+00 7.5398e-01 7.5025e-01 3.7605e-01
 8.3404e-02 1.6785e-02 1.6266e-02 7.7038e-04]
entropy correction =  -0.042041764508847106
cycle= 10 E= -12.7739201231921  delta_E= -4.53e-05  |g|= 0.00216  |ddm|= 0.0158
HOMO:  -0.21786242699507494 LUMO:  -0.21299926734061336
Fermi energy:      -0.2155197295
[2.0000e+00 2.0000e+00 2.0000e+00 2.0000e+00 1.9322e+00 1.8034e+00
 1.8018e+00 1.2348e+00 1.2301e+00 7.5316e-01 7.5137e-01 3.7599e-01
 8.3405e-02 1.6781e-02 1.6263e-02 7.7019e-04]
entropy correction =  -0.04204297202369582
cycle= 11 E= -12.7739222814338  delta_E= -2.16e-06  |g|= 0.00144  |ddm|= 0.00516
HOMO:  -0.21783483272258575 LUMO:  -0.2129645353867431
Fermi energy:      -0.2154942933
[2.0000e+00 2.0000e+00 2.0000e+00 2.0000e+00 1.9322e+00 1.8036e+00
 1.8019e+00 1.2353e+00 1.2299e+00 7.5229e-01 7.5145e-01 3.7618e-01
 8.3387e-02 1.6827e-02 1.6226e-02 7.7053e-04]
entropy correction =  -0.042037251568139825
cycle= 12 E= -12.773923361991  delta_E= -1.08e-06  |g|= 0.000676  |ddm|= 0.00372
HOMO:  -0.21782414350757148 LUMO:  -0.2129515412656652
Fermi energy:      -0.2154814087
[2.0000e+00 2.0000e+00 2.0000e+00 2.0000e+00 1.9322e+00 1.8038e+00
 1.8023e+00 1.2350e+00 1.2301e+00 7.5228e-01 7.5083e-01 3.7621e-01
 8.3387e-02 1.6797e-02 1.6254e-02 7.7102e-04]
entropy correction =  -0.04202884543128508
cycle= 13 E= -12.7739238174447  delta_E= -4.55e-07  |g|= 8.35e-05  |ddm|= 0.00196
HOMO:  -0.21782543946132826 LUMO:  -0.21295317181983625
Fermi energy:      -0.2154824520
[2.0000e+00 2.0000e+00 2.0000e+00 2.0000e+00 1.9323e+00 1.8038e+00
 1.8022e+00 1.2351e+00 1.2301e+00 7.5233e-01 7.5088e-01 3.7620e-01
 8.3375e-02 1.6798e-02 1.6253e-02 7.7089e-04]
entropy correction =  -0.042030438495300394
cycle= 14 E= -12.773923815458  delta_E= 1.99e-09  |g|= 0.000101  |ddm|= 0.000383
HOMO:  -0.2178248065332213 LUMO:  -0.21295191791026372
Fermi energy:      -0.2154818338
[2.0000e+00 2.0000e+00 2.0000e+00 2.0000e+00 1.9323e+00 1.8036e+00
 1.8023e+00 1.2351e+00 1.2301e+00 7.5227e-01 7.5093e-01 3.7619e-01
 8.3370e-02 1.6798e-02 1.6253e-02 7.7089e-04]
entropy correction =  -0.04203026195985828
cycle= 15 E= -12.7739238154737  delta_E= -1.57e-11  |g|= 9.97e-05  |ddm|= 0.000383
HOMO:  -0.21782471209337653 LUMO:  -0.21295200946125925
Fermi energy:      -0.2154816345
[2.0000e+00 2.0000e+00 2.0000e+00 2.0000e+00 1.9323e+00 1.8037e+00
 1.8022e+00 1.2351e+00 1.2301e+00 7.5230e-01 7.5089e-01 3.7619e-01
 8.3370e-02 1.6798e-02 1.6254e-02 7.7090e-04]
entropy correction =  -0.042030101232047014
cycle= 16 E= -12.7739238234024  delta_E= -7.93e-09  |g|= 1.56e-05  |ddm|= 0.000236
HOMO:  -0.21782589105869654 LUMO:  -0.21295333778543005
Fermi energy:      -0.2154827858
[2.0000e+00 2.0000e+00 2.0000e+00 2.0000e+00 1.9323e+00 1.8037e+00
 1.8022e+00 1.2351e+00 1.2301e+00 7.5232e-01 7.5092e-01 3.7619e-01
 8.3370e-02 1.6797e-02 1.6255e-02 7.7085e-04]
entropy correction =  -0.04203043426053929
cycle= 17 E= -12.7739238220072  delta_E= 1.4e-09  |g|= 4.53e-05  |ddm|= 0.000125
HOMO:  -0.2178254090378047 LUMO:  -0.21295296346020812
Fermi energy:      -0.2154823937
[2.0000e+00 2.0000e+00 2.0000e+00 2.0000e+00 1.9323e+00 1.8037e+00
 1.8022e+00 1.2351e+00 1.2301e+00 7.5232e-01 7.5090e-01 3.7619e-01
 8.3370e-02 1.6798e-02 1.6253e-02 7.7087e-04]
entropy correction =  -0.0420301958593548
cycle= 18 E= -12.7739238233483  delta_E= -1.34e-09  |g|= 1.77e-05  |ddm|= 0.00012
HOMO:  -0.2178255673342844 LUMO:  -0.2129530562053513
Fermi energy:      -0.2154825341
[2.0000e+00 2.0000e+00 2.0000e+00 2.0000e+00 1.9323e+00 1.8037e+00
 1.8022e+00 1.2351e+00 1.2301e+00 7.5231e-01 7.5091e-01 3.7618e-01
 8.3370e-02 1.6798e-02 1.6254e-02 7.7086e-04]
entropy correction =  -0.042030248085544376
cycle= 19 E= -12.7739238234283  delta_E= -8e-11  |g|= 1.46e-05  |ddm|= 5.39e-05
HOMO:  -0.21782451710069717 LUMO:  -0.21295181271624378
Fermi energy:      -0.2154815272
[2.0000e+00 2.0000e+00 2.0000e+00 2.0000e+00 1.9323e+00 1.8038e+00
 1.8022e+00 1.2351e+00 1.2301e+00 7.5229e-01 7.5089e-01 3.7619e-01
 8.3370e-02 1.6798e-02 1.6253e-02 7.7090e-04]
entropy correction =  -0.04202971671643486
Extra cycle  E= -12.7739238123673  delta_E= 1.11e-08  |g|= 0.000122  |ddm|= 0.00022
entropy correction =  -0.04202971671643486
scf energies:
EA (no vemb contrib.) =  -34.79037509539643
EB (no vemb contrib.) =  -24.951259925059325
W =  -59.63768750658263
P_imp change (scf - non-scf):  0.0028345267651744147
P_bath change (scf - non-scf):  0.0036288612567546156
|P_frag + P_env - P_ref| =  0.06998123074198381
max element of (P_frag + P_env - P_ref) =  0.004138354899010169
mo orthogonality:
[[ 2.9113e-06  2.3862e-06 -1.8229e-06  1.5183e-02  7.2744e-06 -5.3853e-05
  -5.3465e-06  3.4760e-06  7.6281e-06  2.0890e-05 -5.0650e-05  2.3103e-05
   3.3310e-01 -8.3380e-04 -2.8375e-04  4.5446e-01 -1.9037e-04  1.0671e-03
   1.0377e-04]
 [-5.9849e-06 -2.2370e-05  8.7013e-03 -1.6757e-05  2.3261e-06 -1.2206e-05
  -3.4150e-06 -2.5450e-05 -2.1001e-04 -4.2954e-05 -3.2828e-06 -2.5056e-01
   7.5278e-05 -1.4146e-04  1.2798e-04 -1.5144e-04 -1.2570e-03 -8.3356e-03
  -8.9944e-03]
 [-3.6070e-04  1.3799e-03  9.4310e-05  1.5030e-05  7.0900e-05  1.1796e-05
   4.2495e-05  8.5690e-03  2.0226e-02 -1.1299e-04 -3.2825e-05 -2.3517e-03
   1.3357e-05 -2.4189e-04  1.8884e-04 -7.2506e-04  2.0580e-02  7.0578e-01
  -6.8834e-02]
 [-1.4342e-03 -3.2171e-05 -8.0362e-05  4.3048e-05  3.0755e-05 -7.9744e-06
  -2.6237e-05  1.9552e-02 -8.6523e-03 -4.7508e-05  1.1194e-04  1.8505e-03
  -4.0033e-04  3.0032e-04 -3.5483e-04  5.7046e-04 -1.4868e-02 -5.4877e-02
  -8.0937e-01]
 [-2.2995e-06  7.2991e-07 -7.5399e-06  6.8385e-05  1.2369e-05 -1.8795e-02
  -1.1456e-02 -7.4464e-06  1.2069e-04 -7.2376e-02  2.9998e-04 -7.9891e-05
   3.2234e-03  8.8493e-01  2.8267e-01 -5.4952e-05  1.2037e-03  7.5965e-04
   9.7577e-04]
 [-2.0459e-05  2.4894e-05  5.5313e-06  2.6414e-05 -6.2527e-06 -1.1597e-02
   1.8866e-02 -7.2251e-05 -8.6818e-05 -5.3970e-04 -7.2038e-02  9.8685e-05
   2.2404e-03 -2.8263e-01  8.8558e-01 -1.6150e-03 -8.7225e-04 -2.9998e-04
   3.0233e-04]
 [-1.5562e-05 -2.0876e-05  1.4424e-05 -6.0396e-03 -3.9337e-06 -1.1851e-04
  -7.4363e-06 -1.7749e-05 -7.5905e-05 -1.9732e-04 -3.1068e-04 -8.8475e-05
  -7.5188e-01  1.6483e-03  3.3896e-03  5.4352e-01 -3.5416e-04  5.3082e-04
   6.1976e-04]
 [-4.7699e-06  6.1992e-05  1.3521e-05 -9.7304e-05 -1.1660e-04  1.8485e-01
  -6.9813e-02  4.6069e-04  1.8075e-04 -5.9555e-01 -7.5978e-01 -6.9962e-04
  -4.9258e-05 -2.5094e-02 -6.7789e-02 -1.9475e-04  1.9811e-04 -5.5575e-05
  -9.9584e-05]
 [-5.5153e-05 -1.0283e-04  1.3122e-05 -7.7147e-05  1.3073e-04 -7.0396e-02
  -1.8424e-01  8.7551e-06  2.7226e-04  7.5969e-01 -5.9577e-01 -1.4069e-04
   7.9960e-05  6.8203e-02 -2.4577e-02  7.5249e-05 -2.2860e-04  3.2440e-04
  -1.5988e-04]
 [ 2.1808e-04  1.1960e-04  5.7212e-02 -6.0153e-07 -5.3392e-07  1.4899e-04
  -7.5553e-05  9.8517e-04 -2.6656e-04 -3.4437e-04 -6.3685e-04  9.3634e-01
  -1.6090e-04  5.1527e-05 -9.0788e-05 -1.2646e-04 -2.0161e-04 -1.5599e-04
  -7.5617e-04]
 [ 2.9501e-02 -7.0258e-03 -2.3098e-04 -2.3189e-05 -5.1980e-05  1.2612e-04
   2.1385e-04  9.7210e-01 -3.1395e-02  3.2543e-04  3.2973e-04 -9.5579e-04
  -3.4094e-05  7.3466e-05  1.5935e-04 -6.0041e-05  8.5242e-04 -1.0823e-03
   1.5771e-02]
 [-7.2564e-03 -2.9197e-02  1.0106e-04 -1.8182e-05  2.0184e-05 -1.7455e-04
   1.2628e-04  3.1394e-02  9.7256e-01 -9.7075e-05  2.8484e-04  2.5146e-04
  -8.3357e-05 -1.9409e-04  4.5163e-05  6.8886e-05 -6.7148e-04 -3.7236e-03
  -4.2799e-03]
 [-1.9525e-04 -3.0221e-04  5.7612e-04 -7.7329e-01  1.5867e-04 -4.6083e-04
  -6.1895e-05 -5.5149e-05 -6.6643e-05 -8.1389e-05  9.9810e-05 -1.5101e-04
  -2.8561e-01  1.0310e-03  3.3466e-04 -3.1482e-01  2.5340e-04 -2.1334e-04
   2.7415e-05]
 [-2.4094e-03 -3.8231e-04  2.1103e-05  1.9246e-04  9.5818e-01  3.8165e-04
  -7.3913e-05  3.0987e-04 -1.2950e-04 -1.1441e-04  4.1572e-05 -3.0085e-07
  -1.8854e-05  1.4091e-04  3.0223e-05 -1.0936e-05 -1.8290e-04 -3.6752e-04
   1.1296e-04]]
|P_imp-P_imp_0| =  0.0028345267651744147
max(P_imp-P_imp_0) =  0.00021471757385606305
|P_bath-P_bath_0| =  0.0036288612567546156
max(P_bath-P_bath_0) =  0.00019511393740428984
RUNNING THE L-BFGS-B CODE

           * * *

Machine precision = 2.220D-16
 N =         4656     M =           10

At X0         0 variables are exactly at the bounds

At iterate    0    f=   1.248012561572E-03    |proj g|=  3.793045847E-03

At iterate    1    f=   1.247814437248E-03    |proj g|=  2.325115102E-03

At iterate    2    f=   1.247684690540E-03    |proj g|=  6.902647702E-03

At iterate    3    f=   1.247255505559E-03    |proj g|=  2.824325374E-03

At iterate    4    f=   1.247081221170E-03    |proj g|=  1.911055952E-03

At iterate    5    f=   1.247053387153E-03    |proj g|=  2.143487115E-03

At iterate    6    f=   1.246881427290E-03    |proj g|=  1.697233629E-03

At iterate    7    f=   1.246854747605E-03    |proj g|=  6.904450680E-03

At iterate    8    f=   1.246257138495E-03    |proj g|=  2.900008305E-03

At iterate    9    f=   1.246109354923E-03    |proj g|=  3.375586987E-03

At iterate   10    f=   1.245458708821E-03    |proj g|=  3.587814485E-03

At iterate   11    f=   1.244939004340E-03    |proj g|=  2.804830656E-03

At iterate   12    f=   1.244625139977E-03    |proj g|=  2.378739194E-03

At iterate   13    f=   1.244518141612E-03    |proj g|=  1.868555122E-03

At iterate   14    f=   1.244350987538E-03    |proj g|=  2.302609330E-03

At iterate   15    f=   1.244350805240E-03    |proj g|=  2.276162606E-03

At iterate   16    f=   1.244350804860E-03    |proj g|=  2.275778249E-03

           * * *

Tit   = total number of iterations
Tnf   = total number of function evaluations
Tnint = total number of segments explored during Cauchy searches
Skip  = number of BFGS updates skipped
Nact  = number of active bounds at final generalized Cauchy point
Projg = norm of the final projected gradient
F     = final function value

           * * *

   N    Tit     Tnf  Tnint  Skip  Nact     Projg        F
 4656     16     38      1     0     0   2.276D-03   1.244D-03
  F =   1.2443508048602843E-003

CONVERGENCE: REL_REDUCTION_OF_F_<=_FACTR*EPSMCH             

 Cauchy                time 0.000E+00 seconds.
 Subspace minimization time 0.000E+00 seconds.
 Line search           time 0.000E+00 seconds.

 Total User time 0.000E+00 seconds.

