#INFO: **** input file is /tigress/xingz/pydmfet/examples/research/Al12/dmfet/least/Al12.py ****
from pydmfet import locints, sdmfet, oep, tools, dfet_ao, proj_ao
from pydmfet.dfet_ao import dfet
from pydmfet.qcwrap.pyscf_rks_ao import rks_ao
from pyscf import gto, scf,dft, ao2mo,cc
import numpy as np
from pyscf.tools import molden, cubegen
import copy,time
from pydmfet.tools.sym import h_lattice_sym_tab

bas = 'stuttgartdz'
ecp = 'stuttgartdz'
temp = 0.005


mol = gto.Mole()
mol.atom = open('Al12.xyz').read()
mol.basis = bas
mol.ecp = ecp
mol.build(max_memory = 4000, verbose=4)

mf = rks_ao(mol,smear_sigma = temp)
mf.xc = 'pbe,pbe'
mf.max_cycle = 50
mf.scf(dm0=None)

natoms = mol.natm
impAtom = np.zeros([natoms], dtype=int)
for i in range(6):
    impAtom[i] = 1

ghost_frag = 1-impAtom
ghost_env = 1-ghost_frag

mol_frag = gto.Mole()
mol_frag.atom = tools.add_ghost(mol.atom, ghost_frag)
mol_frag.basis = bas
mol_frag.ecp = ecp
mol_frag.build(max_memory = 4000,verbose = 4)

mol_env = gto.Mole()
mol_env.atom = tools.add_ghost(mol.atom, ghost_env)
mol_env.basis =  bas
mol_env.ecp = ecp
mol_env.build(max_memory = 4000,verbose = 4)

Ne_frag = 18
Ne_env = 18

boundary_atoms = None
boundary_atoms2 =None

umat = None
umat = np.load("umat.npy")

params = oep.OEPparams(algorithm = 'leastsq', opt_method = 'L-BFGS-B', diffP_tol=1e-3, outer_maxit = 10)
params.options['ftol'] = 1e-10
params.options['gtol'] = 1e-4
params.options['maxiter'] = 100
params.options['svd_thresh'] = 1e-5

theDMFET = dfet.DFET(mf, mol_frag, mol_env,Ne_frag,Ne_env,\
                     boundary_atoms=boundary_atoms, boundary_atoms2=boundary_atoms2,umat = umat,\
                     oep_params=params, smear_sigma=temp, ecw_method = 'hf',mf_method = mf.xc, plot_dens=True)

umat = theDMFET.embedding_potential()
#INFO: ******************** input file end ********************


System: uname_result(system='Linux', node='tiger-h24c1n6', release='3.10.0-957.27.2.el7.x86_64', version='#1 SMP Tue Jul 30 11:12:20 EDT 2019', machine='x86_64', processor='x86_64')  Threads 40
Python 3.7.0 (default, Jun 28 2018, 13:15:42) 
[GCC 7.2.0]
numpy 1.16.4  scipy 1.4.0.dev0+0f78e0f
Date: Wed Aug 21 16:51:02 2019
PySCF version 1.5
PySCF path  /home/xingz/.local/lib/python3.7/site-packages/pyscf

[CONFIG] conf_file None
[INPUT] verbose = 4
[INPUT] num. atoms = 12
[INPUT] num. electrons = 36
[INPUT] charge = 0
[INPUT] spin (= nelec alpha-beta = 2S) = 0
[INPUT] symmetry False subgroup None
[INPUT] Mole.unit = angstrom
[INPUT]  1 Al     8.092960000000   4.046480000000  -0.000000000000 AA   15.293477937060   7.646738968530  -0.000000000000 Bohr
[INPUT]  2 Al     8.092960000000   6.069720000000  -2.023240000000 AA   15.293477937060  11.470108452795  -3.823369484265 Bohr
[INPUT]  3 Al    10.116200000000   4.046480000000  -2.023240000000 AA   19.116847421325   7.646738968530  -3.823369484265 Bohr
[INPUT]  4 Al     6.069720000000   4.046480000000  -2.023240000000 AA   11.470108452795   7.646738968530  -3.823369484265 Bohr
[INPUT]  5 Al     8.092960000000   2.023240000000  -2.023240000000 AA   15.293477937060   3.823369484265  -3.823369484265 Bohr
[INPUT]  6 Al     8.092960000000   4.046480000000  -4.046480000000 AA   15.293477937060   7.646738968530  -7.646738968530 Bohr
[INPUT]  7 Al     6.069720000000   6.069720000000  -0.000000000000 AA   11.470108452795  11.470108452795  -0.000000000000 Bohr
[INPUT]  8 Al    10.116200000000   2.023240000000  -0.000000000000 AA   19.116847421325   3.823369484265  -0.000000000000 Bohr
[INPUT]  9 Al    10.116200000000   6.069720000000  -4.046480000000 AA   19.116847421325  11.470108452795  -7.646738968530 Bohr
[INPUT] 10 Al     6.069720000000   2.023240000000  -0.000000000000 AA   11.470108452795   3.823369484265  -0.000000000000 Bohr
[INPUT] 11 Al     6.069720000000   6.069720000000  -4.046480000000 AA   11.470108452795  11.470108452795  -7.646738968530 Bohr
[INPUT] 12 Al    10.116200000000   2.023240000000  -4.046480000000 AA   19.116847421325   3.823369484265  -7.646738968530 Bohr

nuclear repulsion = 84.8573926838199
number of shells = 48
number of NR pGTOs = 192
number of NR cGTOs = 96
basis = stuttgartdz
ecp = stuttgartdz
CPU time:         4.63
rks_ao.ne_frozen =  0


******** <class 'pydmfet.qcwrap.pyscf_rks_ao.rks_ao'> flags ********
method = rks_ao-RKS-RHF
initial guess = minao
damping factor = 0
level shift factor = 0
DIIS = <class 'pyscf.scf.diis.CDIIS'>
DIIS start cycle = 1
DIIS space = 8
SCF tol = 1e-09
SCF gradient tol = None
max. SCF cycles = 50
direct_scf = False
chkfile to save SCF result = /tmp/tmp9ohsn9qt
max_memory 4000 MB (current use 74 MB)
XC functionals = pbe,pbe
small_rho_cutoff = 1e-07
radial grids: 
    Treutler-Ahlrichs (JCP 102, 346 (M4)) radial grids
    
becke partition: Becke, JCP, 88, 2547 (1988)
pruning grids: <function nwchem_prune at 0x2ba2e0059400>
grids dens level: 3
symmetrized grids: False
atomic radii adjust function: <function treutler_atomic_radii_adjust at 0x2ba2e0059378>
Set gradient conv threshold to 3.16228e-05
tot grids = 220800
init E= -21.344783658299
HOMO:  -0.09640875247665474 LUMO:  -0.08910626015728036
Fermi energy:      -0.0887572500
[2.     2.     2.     2.     2.     2.     2.     2.     2.     2.
 2.     2.     1.9995 1.9096 1.7557 1.7557 1.6441 1.6441 1.0349 0.2163
 0.02   0.02  ]
entropy correction =  -0.030126401120555504
cycle= 1 E= -24.031793162344  delta_E= -2.69  |g|= 0.653  |ddm|= 6.67
HOMO:  -0.23116268121406744 LUMO:  -0.23116268121406636
Fermi energy:      -0.2358858179
[2.     2.     2.     2.     2.     2.     2.     2.     2.     2.
 2.     2.     2.     1.9989 1.9981 1.9981 1.9963 0.5599 0.5599 0.4393
 0.4393 0.0101]
entropy correction =  -0.023039333382987866
cycle= 2 E= -22.7589412389294  delta_E= 1.27  |g|= 1.61  |ddm|= 4.31
HOMO:  -0.186479428943634 LUMO:  -0.1755152171500905
Fermi energy:      -0.1766937420
[2.     2.     2.     2.     2.     2.     2.     2.     2.     2.
 2.     2.     1.9995 1.9702 1.7766 1.7766 1.7524 1.7524 0.8827 0.0807
 0.0044 0.0044]
entropy correction =  -0.02415297614020394
cycle= 3 E= -24.1577819139597  delta_E= -1.4  |g|= 0.177  |ddm|= 3.48
HOMO:  -0.16723309364643335 LUMO:  -0.16668219584287258
Fermi energy:      -0.1626445453
[2.     2.     2.     2.     2.     2.     2.     2.     2.     2.
 2.     2.     1.9999 1.922  1.8341 1.8341 1.4292 1.4292 1.3832 0.1196
 0.0244 0.0244]
entropy correction =  -0.02909238898208643
cycle= 4 E= -24.1758252803633  delta_E= -0.018  |g|= 0.0887  |ddm|= 0.83
HOMO:  -0.16913270192186253 LUMO:  -0.1647659994642627
Fermi energy:      -0.1627185946
[2.     2.     2.     2.     2.     2.     2.     2.     2.     2.
 2.     2.     1.9998 1.9364 1.7964 1.7964 1.5659 1.5659 1.2019 0.1144
 0.0115 0.0115]
entropy correction =  -0.02808697661648905
cycle= 5 E= -24.183154801888  delta_E= -0.00733  |g|= 0.00917  |ddm|= 0.293
HOMO:  -0.17049749264548827 LUMO:  -0.16611814497689217
Fermi energy:      -0.1641279001
[2.     2.     2.     2.     2.     2.     2.     2.     2.     2.
 2.     2.     1.9999 1.9389 1.802  1.802  1.5628 1.5628 1.1964 0.1103
 0.0124 0.0124]
entropy correction =  -0.02795963123735471
cycle= 6 E= -24.1832343076201  delta_E= -7.95e-05  |g|= 0.00113  |ddm|= 0.0422
HOMO:  -0.17058528293725844 LUMO:  -0.16630331880958196
Fermi energy:      -0.1642599608
[2.     2.     2.     2.     2.     2.     2.     2.     2.     2.
 2.     2.     1.9999 1.9387 1.8025 1.8025 1.5598 1.5598 1.2015 0.1105
 0.0124 0.0124]
entropy correction =  -0.02798323806982263
cycle= 7 E= -24.1832355424438  delta_E= -1.23e-06  |g|= 0.000895  |ddm|= 0.00747
HOMO:  -0.1705473183301175 LUMO:  -0.166216908154916
Fermi energy:      -0.1641961314
[2.     2.     2.     2.     2.     2.     2.     2.     2.     2.
 2.     2.     1.9999 1.9385 1.8018 1.8018 1.5616 1.5616 1.1994 0.1109
 0.0124 0.0124]
entropy correction =  -0.02798901659182559
cycle= 8 E= -24.1832361917863  delta_E= -6.49e-07  |g|= 7.71e-05  |ddm|= 0.00356
HOMO:  -0.1705350851549472 LUMO:  -0.16621147282032184
Fermi energy:      -0.1641878969
[2.     2.     2.     2.     2.     2.     2.     2.     2.     2.
 2.     2.     1.9999 1.9385 1.8019 1.8019 1.5613 1.5613 1.1996 0.1108
 0.0124 0.0124]
entropy correction =  -0.02798838449184932
cycle= 9 E= -24.1832362012565  delta_E= -9.47e-09  |g|= 2.11e-05  |ddm|= 0.000544
HOMO:  -0.17053203701152653 LUMO:  -0.16620777273045442
Fermi energy:      -0.1641845192
[2.     2.     2.     2.     2.     2.     2.     2.     2.     2.
 2.     2.     1.9999 1.9385 1.8019 1.8019 1.5613 1.5613 1.1996 0.1108
 0.0124 0.0124]
entropy correction =  -0.02798810871278109
cycle= 10 E= -24.1832362015517  delta_E= -2.95e-10  |g|= 3.03e-06  |ddm|= 6.6e-05
HOMO:  -0.1705331170888052 LUMO:  -0.1662088500125
Fermi energy:      -0.1641855888
[2.     2.     2.     2.     2.     2.     2.     2.     2.     2.
 2.     2.     1.9999 1.9385 1.8019 1.8019 1.5613 1.5613 1.1996 0.1108
 0.0124 0.0124]
entropy correction =  -0.027988118840462588
Extra cycle  E= -24.1832362015507  delta_E= 9.81e-13  |g|= 3.71e-06  |ddm|= 1.75e-05
converged SCF energy = -24.1832362015507
#INFO: **** input file is /tigress/xingz/pydmfet/examples/research/Al12/dmfet/least/Al12.py ****
from pydmfet import locints, sdmfet, oep, tools, dfet_ao, proj_ao
from pydmfet.dfet_ao import dfet
from pydmfet.qcwrap.pyscf_rks_ao import rks_ao
from pyscf import gto, scf,dft, ao2mo,cc
import numpy as np
from pyscf.tools import molden, cubegen
import copy,time
from pydmfet.tools.sym import h_lattice_sym_tab

bas = 'stuttgartdz'
ecp = 'stuttgartdz'
temp = 0.005


mol = gto.Mole()
mol.atom = open('Al12.xyz').read()
mol.basis = bas
mol.ecp = ecp
mol.build(max_memory = 4000, verbose=4)

mf = rks_ao(mol,smear_sigma = temp)
mf.xc = 'pbe,pbe'
mf.max_cycle = 50
mf.scf(dm0=None)

natoms = mol.natm
impAtom = np.zeros([natoms], dtype=int)
for i in range(6):
    impAtom[i] = 1

ghost_frag = 1-impAtom
ghost_env = 1-ghost_frag

mol_frag = gto.Mole()
mol_frag.atom = tools.add_ghost(mol.atom, ghost_frag)
mol_frag.basis = bas
mol_frag.ecp = ecp
mol_frag.build(max_memory = 4000,verbose = 4)

mol_env = gto.Mole()
mol_env.atom = tools.add_ghost(mol.atom, ghost_env)
mol_env.basis =  bas
mol_env.ecp = ecp
mol_env.build(max_memory = 4000,verbose = 4)

Ne_frag = 18
Ne_env = 18

boundary_atoms = None
boundary_atoms2 =None

umat = None
umat = np.load("umat.npy")

params = oep.OEPparams(algorithm = 'leastsq', opt_method = 'L-BFGS-B', diffP_tol=1e-3, outer_maxit = 10)
params.options['ftol'] = 1e-10
params.options['gtol'] = 1e-4
params.options['maxiter'] = 100
params.options['svd_thresh'] = 1e-5

theDMFET = dfet.DFET(mf, mol_frag, mol_env,Ne_frag,Ne_env,\
                     boundary_atoms=boundary_atoms, boundary_atoms2=boundary_atoms2,umat = umat,\
                     oep_params=params, smear_sigma=temp, ecw_method = 'hf',mf_method = mf.xc, plot_dens=True)

umat = theDMFET.embedding_potential()
#INFO: ******************** input file end ********************


System: uname_result(system='Linux', node='tiger-h24c1n6', release='3.10.0-957.27.2.el7.x86_64', version='#1 SMP Tue Jul 30 11:12:20 EDT 2019', machine='x86_64', processor='x86_64')  Threads 40
Python 3.7.0 (default, Jun 28 2018, 13:15:42) 
[GCC 7.2.0]
numpy 1.16.4  scipy 1.4.0.dev0+0f78e0f
Date: Wed Aug 21 16:51:15 2019
PySCF version 1.5
PySCF path  /home/xingz/.local/lib/python3.7/site-packages/pyscf

[CONFIG] conf_file None
[INPUT] verbose = 4
[INPUT] num. atoms = 12
[INPUT] num. electrons = 18
[INPUT] charge = 0
[INPUT] spin (= nelec alpha-beta = 2S) = 0
[INPUT] symmetry False subgroup None
[INPUT] Mole.unit = angstrom
[INPUT]  1 Al     8.092960000000   4.046480000000  -0.000000000000 AA   15.293477937060   7.646738968530  -0.000000000000 Bohr
[INPUT]  2 Al     8.092960000000   6.069720000000  -2.023240000000 AA   15.293477937060  11.470108452795  -3.823369484265 Bohr
[INPUT]  3 Al    10.116200000000   4.046480000000  -2.023240000000 AA   19.116847421325   7.646738968530  -3.823369484265 Bohr
[INPUT]  4 Al     6.069720000000   4.046480000000  -2.023240000000 AA   11.470108452795   7.646738968530  -3.823369484265 Bohr
[INPUT]  5 Al     8.092960000000   2.023240000000  -2.023240000000 AA   15.293477937060   3.823369484265  -3.823369484265 Bohr
[INPUT]  6 Al     8.092960000000   4.046480000000  -4.046480000000 AA   15.293477937060   7.646738968530  -7.646738968530 Bohr
[INPUT]  7 GHOST-Al   6.069720000000   6.069720000000  -0.000000000000 AA   11.470108452795  11.470108452795  -0.000000000000 Bohr
[INPUT]  8 GHOST-Al  10.116200000000   2.023240000000  -0.000000000000 AA   19.116847421325   3.823369484265  -0.000000000000 Bohr
[INPUT]  9 GHOST-Al  10.116200000000   6.069720000000  -4.046480000000 AA   19.116847421325  11.470108452795  -7.646738968530 Bohr
[INPUT] 10 GHOST-Al   6.069720000000   2.023240000000  -0.000000000000 AA   11.470108452795   3.823369484265  -0.000000000000 Bohr
[INPUT] 11 GHOST-Al   6.069720000000   6.069720000000  -4.046480000000 AA   11.470108452795  11.470108452795  -7.646738968530 Bohr
[INPUT] 12 GHOST-Al  10.116200000000   2.023240000000  -4.046480000000 AA   19.116847421325   3.823369484265  -7.646738968530 Bohr

nuclear repulsion = 23.5047992975816
number of shells = 48
number of NR pGTOs = 192
number of NR cGTOs = 96
basis = stuttgartdz
ecp = stuttgartdz
CPU time:       334.08
#INFO: **** input file is /tigress/xingz/pydmfet/examples/research/Al12/dmfet/least/Al12.py ****
from pydmfet import locints, sdmfet, oep, tools, dfet_ao, proj_ao
from pydmfet.dfet_ao import dfet
from pydmfet.qcwrap.pyscf_rks_ao import rks_ao
from pyscf import gto, scf,dft, ao2mo,cc
import numpy as np
from pyscf.tools import molden, cubegen
import copy,time
from pydmfet.tools.sym import h_lattice_sym_tab

bas = 'stuttgartdz'
ecp = 'stuttgartdz'
temp = 0.005


mol = gto.Mole()
mol.atom = open('Al12.xyz').read()
mol.basis = bas
mol.ecp = ecp
mol.build(max_memory = 4000, verbose=4)

mf = rks_ao(mol,smear_sigma = temp)
mf.xc = 'pbe,pbe'
mf.max_cycle = 50
mf.scf(dm0=None)

natoms = mol.natm
impAtom = np.zeros([natoms], dtype=int)
for i in range(6):
    impAtom[i] = 1

ghost_frag = 1-impAtom
ghost_env = 1-ghost_frag

mol_frag = gto.Mole()
mol_frag.atom = tools.add_ghost(mol.atom, ghost_frag)
mol_frag.basis = bas
mol_frag.ecp = ecp
mol_frag.build(max_memory = 4000,verbose = 4)

mol_env = gto.Mole()
mol_env.atom = tools.add_ghost(mol.atom, ghost_env)
mol_env.basis =  bas
mol_env.ecp = ecp
mol_env.build(max_memory = 4000,verbose = 4)

Ne_frag = 18
Ne_env = 18

boundary_atoms = None
boundary_atoms2 =None

umat = None
umat = np.load("umat.npy")

params = oep.OEPparams(algorithm = 'leastsq', opt_method = 'L-BFGS-B', diffP_tol=1e-3, outer_maxit = 10)
params.options['ftol'] = 1e-10
params.options['gtol'] = 1e-4
params.options['maxiter'] = 100
params.options['svd_thresh'] = 1e-5

theDMFET = dfet.DFET(mf, mol_frag, mol_env,Ne_frag,Ne_env,\
                     boundary_atoms=boundary_atoms, boundary_atoms2=boundary_atoms2,umat = umat,\
                     oep_params=params, smear_sigma=temp, ecw_method = 'hf',mf_method = mf.xc, plot_dens=True)

umat = theDMFET.embedding_potential()
#INFO: ******************** input file end ********************


System: uname_result(system='Linux', node='tiger-h24c1n6', release='3.10.0-957.27.2.el7.x86_64', version='#1 SMP Tue Jul 30 11:12:20 EDT 2019', machine='x86_64', processor='x86_64')  Threads 40
Python 3.7.0 (default, Jun 28 2018, 13:15:42) 
[GCC 7.2.0]
numpy 1.16.4  scipy 1.4.0.dev0+0f78e0f
Date: Wed Aug 21 16:51:15 2019
PySCF version 1.5
PySCF path  /home/xingz/.local/lib/python3.7/site-packages/pyscf

[CONFIG] conf_file None
[INPUT] verbose = 4
[INPUT] num. atoms = 12
[INPUT] num. electrons = 18
[INPUT] charge = 0
[INPUT] spin (= nelec alpha-beta = 2S) = 0
[INPUT] symmetry False subgroup None
[INPUT] Mole.unit = angstrom
[INPUT]  1 GHOST-Al   8.092960000000   4.046480000000  -0.000000000000 AA   15.293477937060   7.646738968530  -0.000000000000 Bohr
[INPUT]  2 GHOST-Al   8.092960000000   6.069720000000  -2.023240000000 AA   15.293477937060  11.470108452795  -3.823369484265 Bohr
[INPUT]  3 GHOST-Al  10.116200000000   4.046480000000  -2.023240000000 AA   19.116847421325   7.646738968530  -3.823369484265 Bohr
[INPUT]  4 GHOST-Al   6.069720000000   4.046480000000  -2.023240000000 AA   11.470108452795   7.646738968530  -3.823369484265 Bohr
[INPUT]  5 GHOST-Al   8.092960000000   2.023240000000  -2.023240000000 AA   15.293477937060   3.823369484265  -3.823369484265 Bohr
[INPUT]  6 GHOST-Al   8.092960000000   4.046480000000  -4.046480000000 AA   15.293477937060   7.646738968530  -7.646738968530 Bohr
[INPUT]  7 Al     6.069720000000   6.069720000000  -0.000000000000 AA   11.470108452795  11.470108452795  -0.000000000000 Bohr
[INPUT]  8 Al    10.116200000000   2.023240000000  -0.000000000000 AA   19.116847421325   3.823369484265  -0.000000000000 Bohr
[INPUT]  9 Al    10.116200000000   6.069720000000  -4.046480000000 AA   19.116847421325  11.470108452795  -7.646738968530 Bohr
[INPUT] 10 Al     6.069720000000   2.023240000000  -0.000000000000 AA   11.470108452795   3.823369484265  -0.000000000000 Bohr
[INPUT] 11 Al     6.069720000000   6.069720000000  -4.046480000000 AA   11.470108452795  11.470108452795  -7.646738968530 Bohr
[INPUT] 12 Al    10.116200000000   2.023240000000  -4.046480000000 AA   19.116847421325   3.823369484265  -7.646738968530 Bohr

nuclear repulsion = 14.0938802665721
number of shells = 48
number of NR pGTOs = 192
number of NR cGTOs = 96
basis = stuttgartdz
ecp = stuttgartdz
CPU time:       334.47


******** <class 'pydmfet.dfet_ao.scf.EmbedSCF'> flags ********
method = EmbedSCF-RKS-RHF
initial guess = minao
damping factor = 0
level shift factor = 0
DIIS = <class 'pyscf.scf.diis.CDIIS'>
DIIS start cycle = 1
DIIS space = 8
SCF tol = 1e-09
SCF gradient tol = None
max. SCF cycles = 50
direct_scf = False
chkfile to save SCF result = /tmp/tmptjp80a91
max_memory 4000 MB (current use 563 MB)
XC functionals = pbe,pbe
small_rho_cutoff = 1e-07
radial grids: 
    Treutler-Ahlrichs (JCP 102, 346 (M4)) radial grids
    
becke partition: Becke, JCP, 88, 2547 (1988)
pruning grids: <function nwchem_prune at 0x2ba2e0059400>
grids dens level: 3
symmetrized grids: False
atomic radii adjust function: <function treutler_atomic_radii_adjust at 0x2ba2e0059378>
Set gradient conv threshold to 3.16228e-05
tot grids = 190200
init E= -9.27141561503467
HOMO: -0.24181551140570076 LUMO: -0.23879641906357116
mo_energy:
[-0.3679 -0.2681 -0.2658 -0.2658 -0.2596 -0.2594 -0.2584 -0.2418 -0.2418
 -0.2388 -0.2381 -0.2312 -0.2303 -0.2167]
e_fermi =  -0.2409059470375704
[2.    1.991 1.986 1.986 1.954 1.952 1.942 1.093 1.091 0.792 0.73  0.253
 0.214 0.016]
entropy correction =  -0.039370576644034094
cycle= 1 E= -12.9175360514795  delta_E= -3.65  |g|= 0.859  |ddm|= 4.92
HOMO: -0.4960624879866996 LUMO: -0.44684909363675573
mo_energy:
[-0.868 -0.674 -0.617 -0.617 -0.537 -0.528 -0.527 -0.496 -0.496 -0.447
 -0.442 -0.442 -0.43  -0.425]
e_fermi =  -0.47131637170497004
[2.    2.    2.    2.    2.    2.    2.    1.987 1.986 0.015 0.006 0.006]
entropy correction =  -0.001702162491084252
cycle= 2 E= -12.8285740954343  delta_E= 0.089  |g|= 1.08  |ddm|= 3.41
HOMO: -0.3827889179943294 LUMO: -0.3713247180293662
mo_energy:
[-0.588 -0.444 -0.417 -0.416 -0.408 -0.402 -0.402 -0.383 -0.383 -0.371
 -0.371 -0.371 -0.362 -0.334]
e_fermi =  -0.3784244514204579
[2.    2.    1.999 1.999 1.995 1.983 1.983 1.416 1.411 0.389 0.386 0.366
 0.073]
entropy correction =  -0.029523221302087555
cycle= 3 E= -13.3591494023889  delta_E= -0.531  |g|= 0.226  |ddm|=  1.8
HOMO: -0.3704599758521913 LUMO: -0.37018897418443636
mo_energy:
[-0.555 -0.405 -0.4   -0.399 -0.391 -0.389 -0.385 -0.371 -0.37  -0.37
 -0.365 -0.365 -0.357 -0.326]
e_fermi =  -0.3704454986805042
[2.    1.998 1.994 1.994 1.965 1.957 1.902 1.027 1.001 0.974 0.539 0.521
 0.127]
entropy correction =  -0.039085349265466196
cycle= 4 E= -13.3935339841235  delta_E= -0.0344  |g|= 0.0788  |ddm|= 0.809
HOMO: -0.3654794427383047 LUMO: -0.3648976732394852
mo_energy:
[-0.549 -0.406 -0.394 -0.391 -0.388 -0.385 -0.384 -0.367 -0.365 -0.365
 -0.362 -0.361 -0.351 -0.32 ]
e_fermi =  -0.3661374625640133
[2.    1.999 1.992 1.987 1.973 1.956 1.944 1.092 0.934 0.877 0.612 0.534
 0.098]
entropy correction =  -0.03828367863265471
cycle= 5 E= -13.3673527129195  delta_E= 0.0262  |g|= 0.211  |ddm|= 0.507
HOMO: -0.3654415275965142 LUMO: -0.36494291778712684
mo_energy:
[-0.549 -0.406 -0.393 -0.391 -0.387 -0.386 -0.384 -0.366 -0.365 -0.365
 -0.362 -0.361 -0.351 -0.32 ]
e_fermi =  -0.36596847702917895
[2.    1.999 1.99  1.986 1.969 1.961 1.949 1.003 0.947 0.898 0.617 0.577
 0.102]
entropy correction =  -0.038621033776163875
cycle= 6 E= -13.3983446366269  delta_E= -0.031  |g|= 0.0519  |ddm|= 0.353
HOMO: -0.3662620356689208 LUMO: -0.365560580542726
mo_energy:
[-0.55  -0.406 -0.393 -0.392 -0.388 -0.385 -0.385 -0.367 -0.366 -0.366
 -0.362 -0.362 -0.352 -0.321]
e_fermi =  -0.3665794278987984
[2.    1.999 1.99  1.988 1.971 1.955 1.947 1.054 0.968 0.898 0.579 0.555
 0.095]
entropy correction =  -0.038334596298693395
cycle= 7 E= -13.3968983306753  delta_E= 0.00145  |g|= 0.0628  |ddm|= 0.259
HOMO: -0.3679609709403869 LUMO: -0.3656690964785211
mo_energy:
[-0.55  -0.406 -0.394 -0.394 -0.387 -0.387 -0.385 -0.368 -0.368 -0.366
 -0.363 -0.363 -0.352 -0.322]
e_fermi =  -0.3674065394895599
[2.    1.999 1.991 1.989 1.96  1.959 1.942 1.056 1.055 0.828 0.566 0.562
 0.091]
entropy correction =  -0.03831883220745551
cycle= 8 E= -13.3999647696842  delta_E= -0.00307  |g|= 0.032  |ddm|= 0.168
HOMO: -0.36768210196402296 LUMO: -0.3655521488701442
mo_energy:
[-0.55  -0.406 -0.394 -0.393 -0.387 -0.387 -0.385 -0.368 -0.368 -0.366
 -0.363 -0.363 -0.352 -0.322]
e_fermi =  -0.3672241112189303
[2.    1.999 1.991 1.989 1.96  1.96  1.942 1.051 1.046 0.834 0.569 0.568
 0.092]
entropy correction =  -0.03841363221236357
cycle= 9 E= -13.4003834439139  delta_E= -0.000419  |g|= 0.0208  |ddm|= 0.0624
HOMO: -0.3664586380562381 LUMO: -0.36493021050408614
mo_energy:
[-0.548 -0.404 -0.392 -0.391 -0.386 -0.386 -0.384 -0.366 -0.366 -0.365
 -0.362 -0.362 -0.351 -0.321]
e_fermi =  -0.3662964254648656
[2.    1.999 1.989 1.987 1.961 1.96  1.939 1.018 1.016 0.864 0.587 0.584
 0.095]
entropy correction =  -0.03877477667346197
cycle= 10 E= -13.4004063604968  delta_E= -2.29e-05  |g|= 0.0222  |ddm|= 0.0613
HOMO: -0.36594002545059146 LUMO: -0.36473152122776703
mo_energy:
[-0.547 -0.404 -0.392 -0.391 -0.386 -0.386 -0.383 -0.366 -0.366 -0.365
 -0.362 -0.362 -0.351 -0.321]
e_fermi =  -0.3659489692181837
[2.    1.999 1.989 1.987 1.961 1.961 1.938 1.002 0.999 0.879 0.596 0.592
 0.097]
entropy correction =  -0.038914491084837896
cycle= 11 E= -13.400735205151  delta_E= -0.000329  |g|= 0.00356  |ddm|= 0.043
HOMO: -0.36599999829908264 LUMO: -0.3646991892535996
mo_energy:
[-0.547 -0.404 -0.392 -0.391 -0.386 -0.386 -0.383 -0.366 -0.366 -0.365
 -0.362 -0.362 -0.351 -0.321]
e_fermi =  -0.3659810688854776
[2.    1.999 1.989 1.987 1.962 1.961 1.939 1.009 1.002 0.873 0.593 0.591
 0.096]
entropy correction =  -0.038858817607334756
cycle= 12 E= -13.4007406070209  delta_E= -5.4e-06  |g|= 0.00194  |ddm|= 0.0124
HOMO: -0.3660690222150832 LUMO: -0.364717042183357
mo_energy:
[-0.547 -0.404 -0.392 -0.391 -0.386 -0.386 -0.383 -0.366 -0.366 -0.365
 -0.362 -0.362 -0.351 -0.321]
e_fermi =  -0.36601055064670585
[2.    1.999 1.989 1.987 1.961 1.961 1.939 1.007 1.006 0.871 0.593 0.59
 0.096]
entropy correction =  -0.03884775563065033
cycle= 13 E= -13.4007456412482  delta_E= -5.03e-06  |g|= 0.000491  |ddm|= 0.00711
HOMO: -0.36605209784488224 LUMO: -0.3647155942931335
mo_energy:
[-0.547 -0.404 -0.392 -0.391 -0.386 -0.386 -0.383 -0.366 -0.366 -0.365
 -0.362 -0.362 -0.351 -0.321]
e_fermi =  -0.36600124609625156
[2.    1.999 1.989 1.987 1.962 1.961 1.939 1.007 1.005 0.872 0.593 0.59
 0.096]
entropy correction =  -0.038854885895043524
cycle= 14 E= -13.4007439340595  delta_E= 1.71e-06  |g|= 0.00139  |ddm|= 0.00463
HOMO: -0.36605957817960666 LUMO: -0.36471722223041986
mo_energy:
[-0.547 -0.404 -0.392 -0.391 -0.386 -0.386 -0.383 -0.366 -0.366 -0.365
 -0.362 -0.362 -0.351 -0.321]
e_fermi =  -0.3660035484651137
[2.    1.999 1.989 1.987 1.961 1.961 1.939 1.006 1.006 0.872 0.594 0.59
 0.096]
entropy correction =  -0.03885432239366955
cycle= 15 E= -13.4007458113805  delta_E= -1.88e-06  |g|= 0.000338  |ddm|= 0.00364
HOMO: -0.3660667913636146 LUMO: -0.36472312235390325
mo_energy:
[-0.547 -0.404 -0.392 -0.391 -0.386 -0.386 -0.383 -0.366 -0.366 -0.365
 -0.362 -0.362 -0.351 -0.321]
e_fermi =  -0.36600944337574237
[2.    1.999 1.989 1.987 1.961 1.961 1.939 1.006 1.006 0.872 0.594 0.59
 0.096]
entropy correction =  -0.03885451257251362
cycle= 16 E= -13.4007458023318  delta_E= 9.05e-09  |g|= 0.000301  |ddm|= 0.001
HOMO: -0.36607143383562735 LUMO: -0.36472652849452947
mo_energy:
[-0.547 -0.404 -0.392 -0.391 -0.386 -0.386 -0.383 -0.366 -0.366 -0.365
 -0.362 -0.362 -0.351 -0.321]
e_fermi =  -0.36601352228856027
[2.    1.999 1.989 1.987 1.961 1.961 1.939 1.006 1.006 0.872 0.593 0.59
 0.096]
entropy correction =  -0.03885382559506579
cycle= 17 E= -13.4007458679686  delta_E= -6.56e-08  |g|= 0.000199  |ddm|= 0.000929
HOMO: -0.3660713664433748 LUMO: -0.36472689457743185
mo_energy:
[-0.547 -0.404 -0.392 -0.391 -0.386 -0.386 -0.383 -0.366 -0.366 -0.365
 -0.362 -0.362 -0.351 -0.321]
e_fermi =  -0.3660137787222863
[2.    1.999 1.989 1.987 1.961 1.961 1.939 1.006 1.006 0.872 0.593 0.59
 0.096]
entropy correction =  -0.038854113079435225
cycle= 18 E= -13.4007458542558  delta_E= 1.37e-08  |g|= 0.000236  |ddm|= 0.00066
HOMO: -0.36606269221399085 LUMO: -0.3647206533421456
mo_energy:
[-0.547 -0.404 -0.392 -0.391 -0.386 -0.386 -0.383 -0.366 -0.366 -0.365
 -0.362 -0.362 -0.351 -0.321]
e_fermi =  -0.36600694774927217
[2.    1.999 1.989 1.987 1.961 1.961 1.939 1.006 1.006 0.872 0.594 0.59
 0.096]
entropy correction =  -0.038855017533166905
cycle= 19 E= -13.4007458609582  delta_E= -6.7e-09  |g|= 0.000221  |ddm|= 0.000572
HOMO: -0.3660640367618889 LUMO: -0.36472126976379504
mo_energy:
[-0.547 -0.404 -0.392 -0.391 -0.386 -0.386 -0.383 -0.366 -0.366 -0.365
 -0.362 -0.362 -0.351 -0.321]
e_fermi =  -0.3660078050642082
[2.    1.999 1.989 1.987 1.961 1.961 1.939 1.006 1.006 0.872 0.594 0.59
 0.096]
entropy correction =  -0.038854673600421955
cycle= 20 E= -13.4007458905688  delta_E= -2.96e-08  |g|= 8.55e-05  |ddm|= 0.000439
HOMO: -0.3660673196293243 LUMO: -0.3647232343855605
mo_energy:
[-0.547 -0.404 -0.392 -0.391 -0.386 -0.386 -0.383 -0.366 -0.366 -0.365
 -0.362 -0.362 -0.351 -0.321]
e_fermi =  -0.3660103769893501
[2.    1.999 1.989 1.987 1.961 1.961 1.939 1.006 1.006 0.872 0.593 0.59
 0.096]
entropy correction =  -0.03885381841288498
cycle= 21 E= -13.400745893971  delta_E= -3.4e-09  |g|= 3.86e-05  |ddm|= 0.000231
HOMO: -0.36606890202948345 LUMO: -0.3647238122453194
mo_energy:
[-0.547 -0.404 -0.392 -0.391 -0.386 -0.386 -0.383 -0.366 -0.366 -0.365
 -0.362 -0.362 -0.351 -0.321]
e_fermi =  -0.3660113158324105
[2.    1.999 1.989 1.987 1.961 1.961 1.939 1.006 1.006 0.872 0.593 0.59
 0.096]
entropy correction =  -0.03885335821679551
cycle= 22 E= -13.4007458938747  delta_E= 9.63e-11  |g|= 4.2e-05  |ddm|= 0.00023
HOMO: -0.36606746130939116 LUMO: -0.3647230562704524
mo_energy:
[-0.547 -0.404 -0.392 -0.391 -0.386 -0.386 -0.383 -0.366 -0.366 -0.365
 -0.362 -0.362 -0.351 -0.321]
e_fermi =  -0.36601014793941994
[2.    1.999 1.989 1.987 1.961 1.961 1.939 1.006 1.006 0.872 0.593 0.59
 0.096]
entropy correction =  -0.03885397173980715
cycle= 23 E= -13.400745895421  delta_E= -1.55e-09  |g|= 2.17e-05  |ddm|= 0.000148
HOMO: -0.36606611933860134 LUMO: -0.3647223125666496
mo_energy:
[-0.547 -0.404 -0.392 -0.391 -0.386 -0.386 -0.383 -0.366 -0.366 -0.365
 -0.362 -0.362 -0.351 -0.321]
e_fermi =  -0.3660092903677377
[2.    1.999 1.989 1.987 1.961 1.961 1.939 1.006 1.006 0.872 0.593 0.59
 0.096]
entropy correction =  -0.03885411203828985
cycle= 24 E= -13.4007458876164  delta_E= 7.8e-09  |g|= 0.000107  |ddm|= 0.000198
HOMO: -0.36606748240308695 LUMO: -0.36472320089017957
mo_energy:
[-0.547 -0.404 -0.392 -0.391 -0.386 -0.386 -0.383 -0.366 -0.366 -0.365
 -0.362 -0.362 -0.351 -0.321]
e_fermi =  -0.366010260741932
[2.    1.999 1.989 1.987 1.961 1.961 1.939 1.006 1.006 0.872 0.593 0.59
 0.096]
entropy correction =  -0.038853999821938705
cycle= 25 E= -13.4007458955364  delta_E= -7.92e-09  |g|= 1.93e-05  |ddm|= 0.000162
HOMO: -0.3660676317499971 LUMO: -0.36472339198878134
mo_energy:
[-0.547 -0.404 -0.392 -0.391 -0.386 -0.386 -0.383 -0.366 -0.366 -0.365
 -0.362 -0.362 -0.351 -0.321]
e_fermi =  -0.36601048436227945
[2.    1.999 1.989 1.987 1.961 1.961 1.939 1.006 1.006 0.872 0.593 0.59
 0.096]
entropy correction =  -0.03885395441327457
cycle= 26 E= -13.4007458956371  delta_E= -1.01e-10  |g|= 1.89e-05  |ddm|= 7.81e-05
HOMO: -0.3660670026160679 LUMO: -0.3647225372303166
mo_energy:
[-0.547 -0.404 -0.392 -0.391 -0.386 -0.386 -0.383 -0.366 -0.366 -0.365
 -0.362 -0.362 -0.351 -0.321]
e_fermi =  -0.366009573770011
[2.    1.999 1.989 1.987 1.961 1.961 1.939 1.006 1.006 0.872 0.593 0.59
 0.096]
entropy correction =  -0.03885400933316743
Extra cycle  E= -13.4007458712227  delta_E= 2.44e-08  |g|= 0.000186  |ddm|= 0.000353
converged SCF energy = -13.4007458712227


******** <class 'pydmfet.dfet_ao.scf.EmbedSCF'> flags ********
method = EmbedSCF-RKS-RHF
initial guess = minao
damping factor = 0
level shift factor = 0
DIIS = <class 'pyscf.scf.diis.CDIIS'>
DIIS start cycle = 1
DIIS space = 8
SCF tol = 1e-09
SCF gradient tol = None
max. SCF cycles = 50
direct_scf = False
chkfile to save SCF result = /tmp/tmp25w7ont_
max_memory 4000 MB (current use 5932 MB)
XC functionals = pbe,pbe
small_rho_cutoff = 1e-07
radial grids: 
    Treutler-Ahlrichs (JCP 102, 346 (M4)) radial grids
    
becke partition: Becke, JCP, 88, 2547 (1988)
pruning grids: <function nwchem_prune at 0x2ba2e0059400>
grids dens level: 3
symmetrized grids: False
atomic radii adjust function: <function treutler_atomic_radii_adjust at 0x2ba2e0059378>
Set gradient conv threshold to 3.16228e-05
tot grids = 190200
init E= -9.12128898946026
HOMO: -0.1816089565598513 LUMO: -0.17073598612720015
mo_energy:
[-0.296 -0.296 -0.264 -0.237 -0.19  -0.187 -0.187 -0.182 -0.182 -0.171
 -0.168 -0.157 -0.157 -0.149]
e_fermi =  -0.17462257949560134
[2.    2.    2.    2.    1.915 1.851 1.85  1.605 1.604 0.63  0.408 0.058
 0.057 0.011 0.011]
entropy correction =  -0.03167062238101811
cycle= 1 E= -12.4360420547618  delta_E= -3.31  |g|= 0.773  |ddm|= 5.23
HOMO: -0.13298373137535 LUMO: -0.12981110796256057
mo_energy:
[-0.352 -0.352 -0.312 -0.261 -0.239 -0.239 -0.152 -0.133 -0.133 -0.13
 -0.111 -0.11  -0.109 -0.103]
e_fermi =  -0.12893359271868296
[2.000e+00 2.000e+00 2.000e+00 2.000e+00 2.000e+00 2.000e+00 1.982e+00
 1.391e+00 1.384e+00 1.088e+00 4.909e-02 4.623e-02 3.599e-02 1.128e-02
 1.056e-02 1.040e-03]
entropy correction =  -0.02367870173449427
cycle= 2 E= -12.3596723436956  delta_E= 0.0764  |g|= 0.985  |ddm|= 2.89
HOMO: -0.2173871735111154 LUMO: -0.20905932076183367
mo_energy:
[-0.375 -0.375 -0.342 -0.295 -0.24  -0.24  -0.235 -0.217 -0.217 -0.209
 -0.207 -0.207 -0.199 -0.19 ]
e_fermi =  -0.2141844498294726
[2.    2.    2.    2.    1.989 1.988 1.967 1.312 1.31  0.528 0.389 0.386
 0.098 0.016 0.016]
entropy correction =  -0.03295151465279715
cycle= 3 E= -12.7453619338866  delta_E= -0.386  |g|= 0.229  |ddm|= 1.37
HOMO: -0.2181015158440715 LUMO: -0.21331371438586413
mo_energy:
[-0.365 -0.364 -0.333 -0.289 -0.232 -0.228 -0.227 -0.218 -0.218 -0.213
 -0.213 -0.208 -0.201 -0.192]
e_fermi =  -0.21583969812758855
[2.    2.    2.    2.    1.93  1.83  1.81  1.227 1.222 0.753 0.743 0.36
 0.094 0.016 0.015]
entropy correction =  -0.0416773086333411
cycle= 4 E= -12.768382803058  delta_E= -0.023  |g|= 0.0895  |ddm|= 0.545
HOMO: -0.21826069309268553 LUMO: -0.2134991908877572
mo_energy:
[-0.365 -0.364 -0.332 -0.289 -0.233 -0.227 -0.227 -0.218 -0.218 -0.213
 -0.213 -0.209 -0.201 -0.191]
e_fermi =  -0.21588076517162555
[2.    2.    2.    2.    1.935 1.81  1.799 1.236 1.234 0.766 0.723 0.377
 0.091 0.015 0.014]
entropy correction =  -0.04192055597183339
cycle= 5 E= -12.7573011782914  delta_E= 0.0111  |g|= 0.152  |ddm|= 0.351
HOMO: -0.21790221209963587 LUMO: -0.2131863291846387
mo_energy:
[-0.364 -0.364 -0.332 -0.289 -0.232 -0.227 -0.227 -0.218 -0.218 -0.213
 -0.213 -0.208 -0.2   -0.192]
e_fermi =  -0.21564866776512615
[2.    2.    2.    2.    1.933 1.82  1.798 1.225 1.222 0.759 0.741 0.383
 0.087 0.016 0.015]
entropy correction =  -0.041963117059510474
cycle= 6 E= -12.7746224787769  delta_E= -0.0173  |g|= 0.0171  |ddm|= 0.243
HOMO: -0.21769213673629886 LUMO: -0.21295019240357957
mo_energy:
[-0.364 -0.363 -0.331 -0.289 -0.232 -0.227 -0.226 -0.218 -0.218 -0.213
 -0.213 -0.208 -0.2   -0.191]
e_fermi =  -0.21536469516286097
[2.    2.    2.    2.    1.932 1.832 1.777 1.24  1.229 0.763 0.732 0.376
 0.087 0.016 0.015]
entropy correction =  -0.04197024457136012
cycle= 7 E= -12.7741761591388  delta_E= 0.000446  |g|= 0.0316  |ddm|= 0.106
HOMO: -0.21776400344709235 LUMO: -0.21281674612887289
mo_energy:
[-0.364 -0.363 -0.332 -0.289 -0.232 -0.227 -0.226 -0.218 -0.218 -0.213
 -0.213 -0.208 -0.2   -0.191]
e_fermi =  -0.2153883641002386
[2.    2.    2.    2.    1.931 1.808 1.803 1.235 1.233 0.748 0.746 0.375
 0.087 0.016 0.016]
entropy correction =  -0.04197755525290177
cycle= 8 E= -12.7749550525637  delta_E= -0.000779  |g|= 0.00485  |ddm|= 0.0773
HOMO: -0.21791826448302468 LUMO: -0.21304456233797464
mo_energy:
[-0.364 -0.364 -0.332 -0.289 -0.232 -0.227 -0.227 -0.218 -0.218 -0.213
 -0.213 -0.208 -0.2   -0.191]
e_fermi =  -0.21555907478405692
[2.    2.    2.    2.    1.931 1.808 1.801 1.235 1.232 0.754 0.747 0.374
 0.087 0.016 0.016]
entropy correction =  -0.042005781836514
cycle= 9 E= -12.7749249096692  delta_E= 3.01e-05  |g|= 0.00805  |ddm|= 0.018
HOMO: -0.21797292981346575 LUMO: -0.21311069056023302
mo_energy:
[-0.364 -0.364 -0.332 -0.289 -0.232 -0.227 -0.227 -0.218 -0.218 -0.213
 -0.213 -0.208 -0.2   -0.192]
e_fermi =  -0.21562026787141453
[2.    2.    2.    2.    1.931 1.805 1.802 1.235 1.231 0.754 0.75  0.373
 0.087 0.016 0.016]
entropy correction =  -0.04202862725972862
cycle= 10 E= -12.7749702089229  delta_E= -4.53e-05  |g|= 0.00238  |ddm|= 0.0138
HOMO: -0.21797222144566292 LUMO: -0.21309396765012253
mo_energy:
[-0.364 -0.364 -0.332 -0.289 -0.232 -0.227 -0.227 -0.218 -0.218 -0.213
 -0.213 -0.208 -0.2   -0.192]
e_fermi =  -0.21561903883674877
[2.    2.    2.    2.    1.931 1.805 1.802 1.235 1.231 0.753 0.752 0.373
 0.087 0.016 0.016]
entropy correction =  -0.04202932770901886
cycle= 11 E= -12.7749728950222  delta_E= -2.69e-06  |g|= 0.00174  |ddm|= 0.00738
HOMO: -0.21796896579811298 LUMO: -0.21308708730677522
mo_energy:
[-0.364 -0.364 -0.332 -0.289 -0.232 -0.227 -0.227 -0.218 -0.218 -0.213
 -0.213 -0.208 -0.2   -0.191]
e_fermi =  -0.21561048620556872
[2.    2.    2.    2.    1.931 1.804 1.802 1.234 1.232 0.753 0.752 0.373
 0.087 0.016 0.016]
entropy correction =  -0.042036051360343545
cycle= 12 E= -12.7749737656591  delta_E= -8.71e-07  |g|= 0.00124  |ddm|= 0.00558
HOMO: -0.21793820151894946 LUMO: -0.21304828365484926
mo_energy:
[-0.364 -0.364 -0.332 -0.289 -0.232 -0.227 -0.227 -0.218 -0.218 -0.213
 -0.213 -0.208 -0.2   -0.191]
e_fermi =  -0.21558287284230834
[2.    2.    2.    2.    1.931 1.805 1.803 1.234 1.231 0.752 0.751 0.373
 0.087 0.016 0.016]
entropy correction =  -0.04201547121971135
cycle= 13 E= -12.774975133603  delta_E= -1.37e-06  |g|= 6.55e-05  |ddm|= 0.00321
HOMO: -0.21793798464945757 LUMO: -0.2130470977502619
mo_energy:
[-0.364 -0.364 -0.332 -0.289 -0.232 -0.227 -0.227 -0.218 -0.218 -0.213
 -0.213 -0.208 -0.2   -0.191]
e_fermi =  -0.21558204370376308
[2.    2.    2.    2.    1.931 1.805 1.803 1.235 1.231 0.752 0.751 0.373
 0.087 0.016 0.016]
entropy correction =  -0.042016871105456294
cycle= 14 E= -12.774975116243  delta_E= 1.74e-08  |g|= 0.000165  |ddm|= 0.000367
HOMO: -0.21793750576714785 LUMO: -0.21304688747438022
mo_energy:
[-0.364 -0.364 -0.332 -0.289 -0.232 -0.227 -0.227 -0.218 -0.218 -0.213
 -0.213 -0.208 -0.2   -0.191]
e_fermi =  -0.21558149446022717
[2.    2.    2.    2.    1.931 1.805 1.803 1.235 1.231 0.752 0.751 0.373
 0.087 0.016 0.016]
entropy correction =  -0.042016863523038836
cycle= 15 E= -12.7749751369907  delta_E= -2.07e-08  |g|= 2.52e-05  |ddm|= 0.000277
HOMO: -0.21793868389720578 LUMO: -0.21304870986493102
mo_energy:
[-0.364 -0.364 -0.332 -0.289 -0.232 -0.227 -0.227 -0.218 -0.218 -0.213
 -0.213 -0.208 -0.2   -0.191]
e_fermi =  -0.21558282133996048
[2.    2.    2.    2.    1.931 1.805 1.803 1.235 1.231 0.752 0.751 0.373
 0.087 0.016 0.016]
entropy correction =  -0.04201693712854243
cycle= 16 E= -12.7749751366044  delta_E= 3.86e-10  |g|= 3.57e-05  |ddm|= 0.00012
HOMO: -0.21793876859383104 LUMO: -0.21304866139736678
mo_energy:
[-0.364 -0.364 -0.332 -0.289 -0.232 -0.227 -0.227 -0.218 -0.218 -0.213
 -0.213 -0.208 -0.2   -0.191]
e_fermi =  -0.2155829838017995
[2.    2.    2.    2.    1.931 1.805 1.803 1.235 1.231 0.752 0.751 0.373
 0.087 0.016 0.016]
entropy correction =  -0.04201692097652873
cycle= 17 E= -12.774975136974  delta_E= -3.7e-10  |g|= 2.98e-05  |ddm|= 0.000137
HOMO: -0.21793869754748751 LUMO: -0.21304858821993852
mo_energy:
[-0.364 -0.364 -0.332 -0.289 -0.232 -0.227 -0.227 -0.218 -0.218 -0.213
 -0.213 -0.208 -0.2   -0.191]
e_fermi =  -0.21558266615792623
[2.    2.    2.    2.    1.931 1.805 1.803 1.235 1.231 0.752 0.751 0.373
 0.087 0.016 0.016]
entropy correction =  -0.04201673693043825
Extra cycle  E= -12.7749751148495  delta_E= 2.21e-08  |g|= 0.00017  |ddm|= 0.000438
converged SCF energy = -12.7749751148495
|umat| =  2.748545293940364
rks_ao.ne_frozen =  0
Set gradient conv threshold to 3.16228e-05
Initial guess from hcore.
HOMO:  -3.5059340012930136 LUMO:  -3.312021744479658
Fermi energy:      -3.4072224911
[2. 2. 2. 2. 2. 2. 2. 2. 2.]
tot grids = 190200
init E= -10.1191031607246
HOMO:  -0.06786405402015033 LUMO:  -0.06744236070543659
Fermi energy:      -0.0721821412
[2.     2.     2.     2.     2.     2.     1.9949 1.9495 0.5932 0.5586
 0.4623 0.4416]
entropy correction =  -0.02404403250949709
cycle= 1 E= -10.2132524109264  delta_E= -0.0941  |g|= 2.75  |ddm|= 7.87
HOMO:  -0.7792953727745922 LUMO:  -0.6495391129805708
Fermi energy:      -0.7131005968
[2. 2. 2. 2. 2. 2. 2. 2. 2.]
entropy correction =  -9.972632314850455e-07
cycle= 2 E= -11.5358334614979  delta_E= -1.32  |g|= 2.03  |ddm|= 6.48
HOMO:  -0.45070250629299163 LUMO:  -0.41776879635686126
Fermi energy:      -0.4349237019
[2.0000e+00 2.0000e+00 2.0000e+00 2.0000e+00 1.9997e+00 1.9970e+00
 1.9970e+00 1.9192e+00 1.9183e+00 6.2682e-02 6.1963e-02 2.6701e-02
 1.6884e-02 6.5622e-04]
entropy correction =  -0.007640887827281836
cycle= 3 E= -13.2315715773765  delta_E= -1.7  |g|= 0.547  |ddm|=  3.8
HOMO:  -0.3658013850681096 LUMO:  -0.36512162880247034
Fermi energy:      -0.3679520921
[2.0000e+00 1.9988e+00 1.9955e+00 1.9948e+00 1.9764e+00 1.9753e+00
 1.8860e+00 1.2647e+00 7.8819e-01 7.2428e-01 6.0276e-01 5.5329e-01
 2.3965e-01 1.9700e-04]
entropy correction =  -0.03940297459134967
cycle= 4 E= -13.3637256317994  delta_E= -0.132  |g|= 0.212  |ddm|= 1.69
HOMO:  -0.3686300028396311 LUMO:  -0.3631172344779463
Fermi energy:      -0.3676975293
[2.0000e+00 1.9998e+00 1.9987e+00 1.9984e+00 1.9834e+00 1.9773e+00
 1.9465e+00 1.4366e+00 1.0930e+00 5.7152e-01 4.6885e-01 4.4697e-01
 7.8880e-02 1.6473e-04]
entropy correction =  -0.03371090229546769
cycle= 5 E= -13.0107402725176  delta_E= 0.353  |g|= 0.747  |ddm|=  1.4
HOMO:  -0.373314473903963 LUMO:  -0.3690340632877816
Fermi energy:      -0.3717896670
[2.0000e+00 1.9998e+00 1.9968e+00 1.9946e+00 1.9725e+00 1.9666e+00
 1.9608e+00 1.1718e+00 1.1513e+00 7.3121e-01 4.9171e-01 4.7185e-01
 9.0624e-02 2.0296e-04]
entropy correction =  -0.03591069848541948
cycle= 6 E= -13.3865071815234  delta_E= -0.376  |g|= 0.136  |ddm|= 1.05
HOMO:  -0.37184255475881417 LUMO:  -0.37100444820265654
Fermi energy:      -0.3712676921
[2.0000e+00 1.9994e+00 1.9961e+00 1.9866e+00 1.9769e+00 1.9489e+00
 1.9251e+00 1.2248e+00 1.0574e+00 9.7368e-01 5.5354e-01 2.8913e-01
 6.8272e-02 2.2171e-04]
entropy correction =  -0.03603984355441688
cycle= 7 E= -13.3714530311319  delta_E= 0.0151  |g|= 0.164  |ddm|= 0.595
HOMO:  -0.3703803095362723 LUMO:  -0.3676696703899771
Fermi energy:      -0.3698256068
[2.0000e+00 1.9991e+00 1.9917e+00 1.9897e+00 1.9615e+00 1.9538e+00
 1.9376e+00 1.1704e+00 1.0554e+00 7.8769e-01 5.4297e-01 5.2632e-01
 8.3586e-02 2.3853e-04]
entropy correction =  -0.037835741724770444
cycle= 8 E= -13.3968241537701  delta_E= -0.0254  |g|= 0.0694  |ddm|= 0.501
HOMO:  -0.3684540201018549 LUMO:  -0.36619128606242135
Fermi energy:      -0.3679910744
[2.0000e+00 1.9990e+00 1.9907e+00 1.9877e+00 1.9631e+00 1.9554e+00
 1.9385e+00 1.0884e+00 1.0463e+00 8.2194e-01 5.6669e-01 5.5484e-01
 8.7285e-02 2.3344e-04]
entropy correction =  -0.03833155058327073
cycle= 9 E= -13.3895763693135  delta_E= 0.00725  |g|= 0.125  |ddm|= 0.276
HOMO:  -0.3646281580090062 LUMO:  -0.3642296905257724
Fermi energy:      -0.3653417973
[2.0000e+00 1.9989e+00 1.9877e+00 1.9834e+00 1.9636e+00 1.9626e+00
 1.9364e+00 1.0372e+00 9.2876e-01 8.8925e-01 6.2699e-01 5.9002e-01
 9.4981e-02 2.2653e-04]
entropy correction =  -0.03905702089368532
cycle= 10 E= -13.3994698989327  delta_E= -0.00989  |g|= 0.0357  |ddm|= 0.244
HOMO:  -0.3647456892752201 LUMO:  -0.36404924390042526
Fermi energy:      -0.3650670393
[2.0000e+00 1.9990e+00 1.9876e+00 1.9855e+00 1.9630e+00 1.9623e+00
 1.9395e+00 9.8374e-01 9.6788e-01 8.9857e-01 6.0925e-01 6.0471e-01
 9.8875e-02 2.2539e-04]
entropy correction =  -0.03905768836530871
cycle= 11 E= -13.4004918493847  delta_E= -0.00102  |g|= 0.0214  |ddm|= 0.119
HOMO:  -0.365268447433009 LUMO:  -0.3642612529966995
Fermi energy:      -0.3654139907
[2.0000e+00 1.9990e+00 1.9884e+00 1.9862e+00 1.9620e+00 1.9615e+00
 1.9393e+00 1.0025e+00 9.8545e-01 8.8523e-01 5.9869e-01 5.9417e-01
 9.7333e-02 2.2865e-04]
entropy correction =  -0.038935570214389856
cycle= 12 E= -13.4002530610983  delta_E= 0.000239  |g|= 0.0297  |ddm|= 0.0814
HOMO:  -0.36603689184583654 LUMO:  -0.36470316946126874
Fermi energy:      -0.3659775168
[2.0000e+00 1.9990e+00 1.9890e+00 1.9869e+00 1.9612e+00 1.9609e+00
 1.9384e+00 1.0099e+00 1.0059e+00 8.7325e-01 5.9114e-01 5.8769e-01
 9.6451e-02 2.3142e-04]
entropy correction =  -0.03885747189055055
cycle= 13 E= -13.400854264978  delta_E= -0.000601  |g|= 0.00221  |ddm|= 0.0559
HOMO:  -0.366108140932896 LUMO:  -0.3647541891623869
Fermi energy:      -0.3660490413
[2.0000e+00 1.9990e+00 1.9888e+00 1.9870e+00 1.9618e+00 1.9605e+00
 1.9389e+00 1.0108e+00 1.0059e+00 8.7123e-01 5.9276e-01 5.8693e-01
 9.6056e-02 2.3080e-04]
entropy correction =  -0.03884176145846351
cycle= 14 E= -13.4008454135682  delta_E= 8.85e-06  |g|= 0.00359  |ddm|= 0.0146
HOMO:  -0.3661391220975941 LUMO:  -0.3647617778266936
Fermi energy:      -0.3660678715
[2.0000e+00 1.9990e+00 1.9889e+00 1.9868e+00 1.9614e+00 1.9611e+00
 1.9393e+00 1.0094e+00 1.0071e+00 8.7013e-01 5.9194e-01 5.8864e-01
 9.5909e-02 2.3023e-04]
entropy correction =  -0.03883249682276389
cycle= 15 E= -13.4008571576233  delta_E= -1.17e-05  |g|= 0.0013  |ddm|= 0.0123
HOMO:  -0.36616484470264027 LUMO:  -0.3647847954376308
Fermi energy:      -0.3660835865
[2.0000e+00 1.9990e+00 1.9889e+00 1.9869e+00 1.9613e+00 1.9610e+00
 1.9388e+00 1.0088e+00 1.0081e+00 8.7085e-01 5.9203e-01 5.8814e-01
 9.5990e-02 2.3090e-04]
entropy correction =  -0.03884592660103938
cycle= 16 E= -13.4008589422137  delta_E= -1.78e-06  |g|= 0.000553  |ddm|= 0.00434
HOMO:  -0.366157133446011 LUMO:  -0.3647862360220708
Fermi energy:      -0.3660823748
[2.0000e+00 1.9990e+00 1.9889e+00 1.9868e+00 1.9615e+00 1.9608e+00
 1.9387e+00 1.0092e+00 1.0075e+00 8.7111e-01 5.9156e-01 5.8874e-01
 9.6012e-02 2.3104e-04]
entropy correction =  -0.038850395173523164
cycle= 17 E= -13.4008576429935  delta_E= 1.3e-06  |g|= 0.00123  |ddm|= 0.00418
HOMO:  -0.36615314903995433 LUMO:  -0.36477667644348105
Fermi energy:      -0.3660730816
[2.0000e+00 1.9990e+00 1.9889e+00 1.9869e+00 1.9613e+00 1.9610e+00
 1.9388e+00 1.0083e+00 1.0080e+00 8.7108e-01 5.9219e-01 5.8830e-01
 9.6020e-02 2.3083e-04]
entropy correction =  -0.03884748520084095
cycle= 18 E= -13.4008563324234  delta_E= 1.31e-06  |g|= 0.00196  |ddm|= 0.00526
HOMO:  -0.36613370678216806 LUMO:  -0.36476955685641427
Fermi energy:      -0.3660628019
[2.0000e+00 1.9990e+00 1.9889e+00 1.9868e+00 1.9613e+00 1.9610e+00
 1.9388e+00 1.0085e+00 1.0071e+00 8.7139e-01 5.9234e-01 5.8855e-01
 9.6049e-02 2.3090e-04]
entropy correction =  -0.03885203940222419
cycle= 19 E= -13.4008591247123  delta_E= -2.79e-06  |g|= 0.000257  |ddm|= 0.00338
HOMO:  -0.3661260661951646 LUMO:  -0.3647624206949633
Fermi energy:      -0.3660538348
[2.0000e+00 1.9990e+00 1.9889e+00 1.9868e+00 1.9614e+00 1.9610e+00
 1.9388e+00 1.0079e+00 1.0072e+00 8.7157e-01 5.9230e-01 5.8888e-01
 9.6069e-02 2.3086e-04]
entropy correction =  -0.03885376336832084
cycle= 20 E= -13.4008587588695  delta_E= 3.66e-07  |g|= 0.000762  |ddm|= 0.00192
HOMO:  -0.3661376427134397 LUMO:  -0.36476961144816644
Fermi energy:      -0.3660622816
[2.0000e+00 1.9990e+00 1.9889e+00 1.9868e+00 1.9613e+00 1.9610e+00
 1.9388e+00 1.0081e+00 1.0075e+00 8.7145e-01 5.9216e-01 5.8863e-01
 9.6066e-02 2.3087e-04]
entropy correction =  -0.038851548821849595
cycle= 21 E= -13.4008591134265  delta_E= -3.55e-07  |g|= 0.000374  |ddm|= 0.00155
HOMO:  -0.36613911815116895 LUMO:  -0.36477106210257754
Fermi energy:      -0.3660638877
[2.0000e+00 1.9990e+00 1.9889e+00 1.9868e+00 1.9613e+00 1.9610e+00
 1.9388e+00 1.0082e+00 1.0075e+00 8.7143e-01 5.9215e-01 5.8857e-01
 9.6066e-02 2.3088e-04]
entropy correction =  -0.03885135757348129
cycle= 22 E= -13.4008592056255  delta_E= -9.22e-08  |g|= 3.37e-05  |ddm|= 0.000654
HOMO:  -0.366141749581956 LUMO:  -0.36477212301539796
Fermi energy:      -0.3660656442
[2.0000e+00 1.9990e+00 1.9889e+00 1.9868e+00 1.9613e+00 1.9610e+00
 1.9388e+00 1.0082e+00 1.0076e+00 8.7136e-01 5.9215e-01 5.8853e-01
 9.6057e-02 2.3088e-04]
entropy correction =  -0.03885075586773151
cycle= 23 E= -13.4008592057884  delta_E= -1.63e-10  |g|= 2.94e-05  |ddm|= 0.000136
HOMO:  -0.3661415052929471 LUMO:  -0.36477265596624386
Fermi energy:      -0.3660663886
[2.0000e+00 1.9990e+00 1.9889e+00 1.9868e+00 1.9613e+00 1.9610e+00
 1.9388e+00 1.0084e+00 1.0075e+00 8.7134e-01 5.9211e-01 5.8855e-01
 9.6054e-02 2.3088e-04]
entropy correction =  -0.03885065165632372
Extra cycle  E= -13.40085916891  delta_E= 3.69e-08  |g|= 0.000192  |ddm|= 0.000591
entropy correction =  -0.03885065165632372
rks_ao.ne_frozen =  0
Set gradient conv threshold to 3.16228e-05
Initial guess from hcore.
HOMO:  -2.5703664089170117 LUMO:  -2.569949261925322
Fermi energy:      -2.5707909911
[2.0000e+00 2.0000e+00 2.0000e+00 2.0000e+00 2.0000e+00 2.0000e+00
 2.0000e+00 1.9959e+00 9.5757e-01 9.1603e-01 6.1729e-02 5.9527e-02
 4.4675e-03 4.0880e-03 7.5971e-04]
tot grids = 190200
init E= -9.69343600112481
HOMO:  0.020012660339802563 LUMO:  0.022893563656690534
Fermi energy:       0.0199039907
[2.     2.     2.     2.     2.     2.     1.9951 1.355  0.9891 0.7096
 0.4321 0.225  0.1128 0.085  0.0457 0.0372 0.0082 0.0027 0.0024]
entropy correction =  -0.0350356420057868
cycle= 1 E= -10.9808090008225  delta_E= -1.29  |g|= 2.09  |ddm|= 9.54
HOMO:  -0.45029025632817027 LUMO:  -0.439877395672715
Fermi energy:      -0.4449109682
[2.     2.     2.     2.     2.     2.     1.9993 1.5656 1.4914 0.5352
 0.1982 0.1743 0.0335 0.0022]
entropy correction =  -0.02387779613592884
cycle= 2 E= -11.0733773066834  delta_E= -0.0926  |g|= 2.12  |ddm|= 9.35
HOMO:  -0.2969494659558551 LUMO:  -0.28316418626962175
Fermi energy:      -0.2888112829
[2.     2.     2.     2.     1.9965 1.9852 1.9766 1.6944 1.6717 0.4885
 0.0687 0.0634 0.0484 0.0034 0.0031]
entropy correction =  -0.019784502840900355
cycle= 3 E= -12.2918349190745  delta_E= -1.22  |g|= 0.887  |ddm|= 1.82
HOMO:  -0.2596103422714255 LUMO:  -0.2564130892408547
Fermi energy:      -0.2579572973
[2.0000e+00 2.0000e+00 2.0000e+00 2.0000e+00 1.9992e+00 1.9520e+00
 1.9055e+00 1.7505e+00 1.1638e+00 8.4680e-01 1.5843e-01 1.4032e-01
 8.0721e-02 1.8248e-03 8.6919e-04 1.4668e-04]
entropy correction =  -0.027565995879879394
cycle= 4 E= -11.4890562458805  delta_E= 0.803  |g|= 1.31  |ddm|= 2.14
HOMO:  -0.2380544744623956 LUMO:  -0.2318467037040523
Fermi energy:      -0.2353896947
[2.0000e+00 2.0000e+00 2.0000e+00 2.0000e+00 1.9701e+00 1.9344e+00
 1.8467e+00 1.2825e+00 1.2603e+00 6.5982e-01 6.5155e-01 2.8581e-01
 7.3374e-02 2.1787e-02 1.3078e-02 4.9833e-04]
entropy correction =  -0.03738539875105342
cycle= 5 E= -12.7612609246054  delta_E= -1.27  |g|= 0.126  |ddm|= 2.07
HOMO:  -0.2170649871422668 LUMO:  -0.21453185401923533
Fermi energy:      -0.2157835257
[2.0000e+00 2.0000e+00 2.0000e+00 2.0000e+00 1.9568e+00 1.9427e+00
 1.7661e+00 1.5427e+00 1.1274e+00 8.7548e-01 4.0821e-01 2.4185e-01
 1.0963e-01 1.6770e-02 1.1853e-02 5.1967e-04]
entropy correction =  -0.0367753720486249
cycle= 6 E= -12.5591970321174  delta_E= 0.202  |g|= 0.525  |ddm|= 1.38
HOMO:  -0.21727825962293063 LUMO:  -0.21292848817501742
Fermi energy:      -0.2147431747
[2.0000e+00 2.0000e+00 2.0000e+00 2.0000e+00 1.9293e+00 1.7864e+00
 1.7505e+00 1.2648e+00 1.2482e+00 8.2050e-01 7.2201e-01 3.5081e-01
 9.2455e-02 1.9098e-02 1.5156e-02 7.2230e-04]
entropy correction =  -0.04272815834599128
cycle= 7 E= -12.7717718507413  delta_E= -0.213  |g|= 0.0552  |ddm|=  1.1
HOMO:  -0.21768422410477326 LUMO:  -0.21367417871451627
Fermi energy:      -0.2153436934
[2.0000e+00 2.0000e+00 2.0000e+00 2.0000e+00 1.9362e+00 1.8671e+00
 1.7140e+00 1.2309e+00 1.2299e+00 8.3458e-01 6.9098e-01 3.7669e-01
 8.7112e-02 1.6246e-02 1.5706e-02 6.2960e-04]
entropy correction =  -0.04211609247645266
cycle= 8 E= -12.7687438168002  delta_E= 0.00303  |g|= 0.0877  |ddm|= 0.306
HOMO:  -0.21784264617652724 LUMO:  -0.2128664893169447
Fermi energy:      -0.2154370025
[2.0000e+00 2.0000e+00 2.0000e+00 2.0000e+00 1.9332e+00 1.8176e+00
 1.7877e+00 1.2457e+00 1.2360e+00 7.4846e-01 7.3590e-01 3.7642e-01
 8.6833e-02 1.6204e-02 1.5362e-02 6.3985e-04]
entropy correction =  -0.041941614927680206
cycle= 9 E= -12.7726560849286  delta_E= -0.00391  |g|= 0.0552  |ddm|= 0.251
HOMO:  -0.21720753902159048 LUMO:  -0.21239115808680967
Fermi energy:      -0.2148681498
[2.0000e+00 2.0000e+00 2.0000e+00 2.0000e+00 1.9314e+00 1.8190e+00
 1.7994e+00 1.2343e+00 1.2298e+00 7.5725e-01 7.3195e-01 3.7750e-01
 8.7252e-02 1.5986e-02 1.5552e-02 6.5289e-04]
entropy correction =  -0.04189718326383205
cycle= 10 E= -12.7743516493283  delta_E= -0.0017  |g|= 0.0281  |ddm|= 0.113
HOMO:  -0.2175576584047353 LUMO:  -0.21265377581022238
Fermi energy:      -0.2152064614
[2.0000e+00 2.0000e+00 2.0000e+00 2.0000e+00 1.9312e+00 1.8094e+00
 1.8023e+00 1.2365e+00 1.2309e+00 7.5014e-01 7.4556e-01 3.7475e-01
 8.7053e-02 1.6214e-02 1.5443e-02 6.4760e-04]
entropy correction =  -0.041968319945208846
cycle= 11 E= -12.7746918358414  delta_E= -0.00034  |g|= 0.0195  |ddm|= 0.0713
HOMO:  -0.217886434428677 LUMO:  -0.2130084174158886
Fermi energy:      -0.2155322520
[2.0000e+00 2.0000e+00 2.0000e+00 2.0000e+00 1.9312e+00 1.8058e+00
 1.7998e+00 1.2356e+00 1.2312e+00 7.5284e-01 7.5155e-01 3.7304e-01
 8.6749e-02 1.5884e-02 1.5825e-02 6.4147e-04]
entropy correction =  -0.0420434708938737
cycle= 12 E= -12.7749518231008  delta_E= -0.00026  |g|= 0.006  |ddm|= 0.04
HOMO:  -0.2179360257904946 LUMO:  -0.21307345350360082
Fermi energy:      -0.2155812735
[2.0000e+00 2.0000e+00 2.0000e+00 2.0000e+00 1.9313e+00 1.8048e+00
 1.8017e+00 1.2346e+00 1.2312e+00 7.5435e-01 7.4979e-01 3.7322e-01
 8.6649e-02 1.5937e-02 1.5736e-02 6.3991e-04]
entropy correction =  -0.042030655385830416
cycle= 13 E= -12.774970654233  delta_E= -1.88e-05  |g|= 0.00342  |ddm|= 0.0153
HOMO:  -0.21800719010269784 LUMO:  -0.21314629566523705
Fermi energy:      -0.2156561416
[2.0000e+00 2.0000e+00 2.0000e+00 2.0000e+00 1.9314e+00 1.8043e+00
 1.8020e+00 1.2344e+00 1.2309e+00 7.5416e-01 7.5057e-01 3.7341e-01
 8.6498e-02 1.5994e-02 1.5642e-02 6.3771e-04]
entropy correction =  -0.042032037660059134
cycle= 14 E= -12.7749784408727  delta_E= -7.79e-06  |g|= 0.00133  |ddm|= 0.00933
HOMO:  -0.21793724131109551 LUMO:  -0.2130430917392028
Fermi energy:      -0.2155810045
[2.0000e+00 2.0000e+00 2.0000e+00 2.0000e+00 1.9313e+00 1.8051e+00
 1.8034e+00 1.2344e+00 1.2314e+00 7.5152e-01 7.5072e-01 3.7345e-01
 8.6549e-02 1.5970e-02 1.5689e-02 6.4077e-04]
entropy correction =  -0.0420057065434869
cycle= 15 E= -12.7749801870435  delta_E= -1.75e-06  |g|= 0.000621  |ddm|= 0.00475
HOMO:  -0.21793342458101328 LUMO:  -0.21304347015065117
Fermi energy:      -0.2155781026
[2.0000e+00 2.0000e+00 2.0000e+00 2.0000e+00 1.9313e+00 1.8050e+00
 1.8026e+00 1.2347e+00 1.2313e+00 7.5183e-01 7.5093e-01 3.7346e-01
 8.6539e-02 1.5973e-02 1.5698e-02 6.4079e-04]
entropy correction =  -0.0420158465877724
cycle= 16 E= -12.7749797851129  delta_E= 4.02e-07  |g|= 0.000927  |ddm|= 0.00302
HOMO:  -0.21794433410364897 LUMO:  -0.21305608932100648
Fermi energy:      -0.2155877126
[2.0000e+00 2.0000e+00 2.0000e+00 2.0000e+00 1.9313e+00 1.8048e+00
 1.8025e+00 1.2346e+00 1.2314e+00 7.5211e-01 7.5104e-01 3.7344e-01
 8.6533e-02 1.5970e-02 1.5699e-02 6.4043e-04]
entropy correction =  -0.0420205066931607
cycle= 17 E= -12.7749804109613  delta_E= -6.26e-07  |g|= 0.000299  |ddm|= 0.0024
HOMO:  -0.2179414895671883 LUMO:  -0.21305040833089892
Fermi energy:      -0.2155855149
[2.0000e+00 2.0000e+00 2.0000e+00 2.0000e+00 1.9313e+00 1.8047e+00
 1.8028e+00 1.2346e+00 1.2313e+00 7.5178e-01 7.5118e-01 3.7350e-01
 8.6524e-02 1.5965e-02 1.5698e-02 6.4035e-04]
entropy correction =  -0.0420177078752086
cycle= 18 E= -12.7749804790128  delta_E= -6.81e-08  |g|= 7.88e-05  |ddm|= 0.000782
HOMO:  -0.21794022992073928 LUMO:  -0.2130488422783032
Fermi energy:      -0.2155841188
[2.0000e+00 2.0000e+00 2.0000e+00 2.0000e+00 1.9313e+00 1.8047e+00
 1.8029e+00 1.2346e+00 1.2313e+00 7.5177e-01 7.5115e-01 3.7348e-01
 8.6526e-02 1.5971e-02 1.5694e-02 6.4045e-04]
entropy correction =  -0.04201713570175256
cycle= 19 E= -12.7749803833338  delta_E= 9.57e-08  |g|= 0.000371  |ddm|= 0.000724
HOMO:  -0.21794302144650188 LUMO:  -0.21305221670376617
Fermi energy:      -0.2155868777
[2.0000e+00 2.0000e+00 2.0000e+00 2.0000e+00 1.9313e+00 1.8046e+00
 1.8028e+00 1.2346e+00 1.2313e+00 7.5183e-01 7.5122e-01 3.7348e-01
 8.6525e-02 1.5969e-02 1.5696e-02 6.4035e-04]
entropy correction =  -0.04201860142618072
cycle= 20 E= -12.7749804851329  delta_E= -1.02e-07  |g|= 3.86e-05  |ddm|= 0.000665
HOMO:  -0.217943812094349 LUMO:  -0.2130530139367548
Fermi energy:      -0.2155877186
[2.0000e+00 2.0000e+00 2.0000e+00 2.0000e+00 1.9313e+00 1.8046e+00
 1.8028e+00 1.2346e+00 1.2313e+00 7.5182e-01 7.5125e-01 3.7347e-01
 8.6524e-02 1.5970e-02 1.5695e-02 6.4034e-04]
entropy correction =  -0.04201880052196132
cycle= 21 E= -12.7749804759911  delta_E= 9.14e-09  |g|= 0.000117  |ddm|= 0.000259
HOMO:  -0.21794260148594433 LUMO:  -0.21305144154042246
Fermi energy:      -0.2155865682
[2.0000e+00 2.0000e+00 2.0000e+00 2.0000e+00 1.9313e+00 1.8046e+00
 1.8029e+00 1.2346e+00 1.2313e+00 7.5178e-01 7.5121e-01 3.7347e-01
 8.6524e-02 1.5970e-02 1.5694e-02 6.4037e-04]
entropy correction =  -0.04201764577181533
cycle= 22 E= -12.7749804778376  delta_E= -1.85e-09  |g|= 0.000103  |ddm|= 0.000283
HOMO:  -0.21794302005441155 LUMO:  -0.21305238370539314
Fermi energy:      -0.2155870203
[2.0000e+00 2.0000e+00 2.0000e+00 2.0000e+00 1.9313e+00 1.8047e+00
 1.8028e+00 1.2346e+00 1.2313e+00 7.5183e-01 7.5119e-01 3.7347e-01
 8.6524e-02 1.5969e-02 1.5695e-02 6.4035e-04]
entropy correction =  -0.042017942910110184
cycle= 23 E= -12.7749804860634  delta_E= -8.23e-09  |g|= 1.19e-05  |ddm|= 0.000206
HOMO:  -0.2179425625545843 LUMO:  -0.21305153874213995
Fermi energy:      -0.2155865129
[2.0000e+00 2.0000e+00 2.0000e+00 2.0000e+00 1.9313e+00 1.8047e+00
 1.8029e+00 1.2346e+00 1.2313e+00 7.5180e-01 7.5120e-01 3.7347e-01
 8.6524e-02 1.5969e-02 1.5696e-02 6.4037e-04]
entropy correction =  -0.04201774558147452
cycle= 24 E= -12.7749804860982  delta_E= -3.48e-11  |g|= 1.17e-05  |ddm|= 4.85e-05
HOMO:  -0.21794445347656516 LUMO:  -0.21305415879940973
Fermi energy:      -0.2155884658
[2.0000e+00 2.0000e+00 2.0000e+00 2.0000e+00 1.9313e+00 1.8046e+00
 1.8028e+00 1.2346e+00 1.2313e+00 7.5186e-01 7.5123e-01 3.7347e-01
 8.6523e-02 1.5969e-02 1.5695e-02 6.4030e-04]
entropy correction =  -0.042018935089999356
Extra cycle  E= -12.7749804841185  delta_E= 1.98e-09  |g|= 5.14e-05  |ddm|= 0.000144
degenerate subspace detected:
nsub = 3
subspace 1:
5, 6, 
subspace 2:
8, 9, 
subspace 3:
11, 12, 

 Adding contributions from fluctuation of occupation numbers.
degenerate subspace detected:
nsub = 5
subspace 1:
1, 2, 
subspace 2:
6, 7, 
subspace 3:
8, 9, 
subspace 4:
10, 11, 
subspace 5:
14, 15, 

 Adding contributions from fluctuation of occupation numbers.
entropy correction =  -0.042018935089999356
2-norm (grad),       max(grad):
0.04918838609909549 ,  0.003468059101074568
time of hessian construction : 29.880  (cpu),  0.843  (wall) 
time of hessian construction : 26.100  (cpu),  0.654  (wall) 
f =  0.0012097486635168453
|umat| =  3.12560889646551
rks_ao.ne_frozen =  0
Set gradient conv threshold to 3.16228e-05
Initial guess from hcore.
HOMO:  -3.6261686591889526 LUMO:  -3.541558682361439
Fermi energy:      -3.5838900545
[2.0000e+00 2.0000e+00 2.0000e+00 2.0000e+00 2.0000e+00 2.0000e+00
 2.0000e+00 2.0000e+00 1.9996e+00 4.2081e-04]
tot grids = 190200
init E= -22.0436191940826
HOMO:  -0.35215589711543593 LUMO:  -0.32308535881529743
Fermi energy:      -0.3374487721
[2.0000e+00 2.0000e+00 2.0000e+00 2.0000e+00 2.0000e+00 2.0000e+00
 2.0000e+00 1.9927e+00 1.8997e+00 1.0704e-01 5.3100e-04]
entropy correction =  -0.004342482177085909
cycle= 1 E= -22.8925795594869  delta_E= -0.849  |g|= 2.19  |ddm|= 37.4
HOMO:  -1.016556661845763 LUMO:  -0.9521674010887351
Fermi energy:      -0.9843587931
[2.     2.     2.     2.     2.     2.     2.     2.     1.9968 0.0032]
entropy correction =  -0.00023770314983206643
cycle= 2 E= -23.6920556681209  delta_E= -0.799  |g|= 1.71  |ddm|= 22.5
HOMO:  -0.6120885884318039 LUMO:  -0.6063261596543277
Fermi energy:      -0.6092141148
[2.0000e+00 2.0000e+00 2.0000e+00 2.0000e+00 2.0000e+00 2.0000e+00
 2.0000e+00 2.0000e+00 1.2798e+00 7.1897e-01 1.2377e-03]
entropy correction =  -0.013118269177308618
cycle= 3 E= -24.4466724642623  delta_E= -0.755  |g|= 0.947  |ddm|= 12.1
HOMO:  -0.6129415684726433 LUMO:  -0.5833860305976457
Fermi energy:      -0.5981649673
[2.     2.     2.     2.     2.     2.     2.     2.     1.901  0.0989]
entropy correction =  -0.003944594945146764
cycle= 4 E= -24.7656928966789  delta_E= -0.319  |g|= 0.462  |ddm|= 4.22
HOMO:  -0.6219677642841159 LUMO:  -0.6004871772841994
Fermi energy:      -0.6112837803
[2.     2.     2.     2.     2.     2.     2.     2.     1.7889 0.2069
 0.0042]
entropy correction =  -0.006849786335629347
cycle= 5 E= -24.8406414451567  delta_E= -0.0749  |g|= 0.124  |ddm|= 1.48
HOMO:  -0.6195856244382425 LUMO:  -0.5988460509350385
Fermi energy:      -0.6092947784
[2.     2.     2.     2.     2.     2.     2.     2.     1.7735 0.2202
 0.0063]
entropy correction =  -0.007211975468230048
cycle= 6 E= -24.8398687177668  delta_E= 0.000773  |g|= 0.12  |ddm|= 0.703
HOMO:  -0.6185130030046602 LUMO:  -0.5957231045456391
Fermi energy:      -0.6072727078
[2.     2.     2.     2.     2.     2.     2.     2.     1.809  0.1806
 0.0104]
entropy correction =  -0.00651064926594507
cycle= 7 E= -24.8444330956828  delta_E= -0.00456  |g|= 0.0708  |ddm|= 0.685
HOMO:  -0.6163073565145566 LUMO:  -0.5950085057563143
Fermi energy:      -0.6058235096
[2.     2.     2.     2.     2.     2.     2.     2.     1.7812 0.2062
 0.0126]
entropy correction =  -0.007154366647149489
cycle= 8 E= -24.8466168662721  delta_E= -0.00218  |g|= 0.0157  |ddm|= 0.343
HOMO:  -0.6162485410999398 LUMO:  -0.5952435296446007
Fermi energy:      -0.6059205127
[2.     2.     2.     2.     2.     2.     2.     2.     1.775  0.2114
 0.0136]
entropy correction =  -0.007298464873212217
cycle= 9 E= -24.8467050259152  delta_E= -8.82e-05  |g|= 0.004  |ddm|= 0.0657
HOMO:  -0.6163701935625683 LUMO:  -0.5952300169463485
Fermi energy:      -0.6059775376
[2.     2.     2.     2.     2.     2.     2.     2.     1.7776 0.2088
 0.0136]
entropy correction =  -0.007245572641374971
cycle= 10 E= -24.8467133402763  delta_E= -8.31e-06  |g|= 0.000887  |ddm|= 0.0269
HOMO:  -0.616345125167312 LUMO:  -0.5952182386948087
Fermi energy:      -0.6059590816
[2.     2.     2.     2.     2.     2.     2.     2.     1.7773 0.209
 0.0137]
entropy correction =  -0.007251272009287708
cycle= 11 E= -24.8467137925022  delta_E= -4.52e-07  |g|= 0.000159  |ddm|= 0.00635
HOMO:  -0.6163404863093705 LUMO:  -0.5952180384686926
Fermi energy:      -0.6059565365
[2.     2.     2.     2.     2.     2.     2.     2.     1.7773 0.2091
 0.0137]
entropy correction =  -0.00725295153469513
cycle= 12 E= -24.8467138059882  delta_E= -1.35e-08  |g|= 4.01e-05  |ddm|= 0.0011
HOMO:  -0.616340506409377 LUMO:  -0.5952168135969977
Fermi energy:      -0.6059559370
[2.     2.     2.     2.     2.     2.     2.     2.     1.7773 0.2091
 0.0136]
entropy correction =  -0.007252417613909683
cycle= 13 E= -24.8467138070591  delta_E= -1.07e-09  |g|= 4.17e-06  |ddm|= 0.000328
HOMO:  -0.6163406062200683 LUMO:  -0.5952171035737767
Fermi energy:      -0.6059561283
[2.     2.     2.     2.     2.     2.     2.     2.     1.7773 0.2091
 0.0136]
entropy correction =  -0.007252493049200204
cycle= 14 E= -24.8467138070676  delta_E= -8.51e-12  |g|= 6.16e-07  |ddm|= 2.03e-05
HOMO:  -0.6163406875389835 LUMO:  -0.5952171759859396
Fermi energy:      -0.6059562038
[2.     2.     2.     2.     2.     2.     2.     2.     1.7773 0.2091
 0.0136]
entropy correction =  -0.007252486579910296
Extra cycle  E= -24.8467138070673  delta_E= 3.69e-13  |g|= 5.07e-07  |ddm|= 5.21e-06
entropy correction =  -0.007252486579910296
rks_ao.ne_frozen =  0
Set gradient conv threshold to 3.16228e-05
Initial guess from hcore.
HOMO:  -2.732635266303558 LUMO:  -2.7015441884225146
Fermi energy:      -2.7169891930
[2.0000e+00 2.0000e+00 2.0000e+00 2.0000e+00 2.0000e+00 2.0000e+00
 2.0000e+00 1.9966e+00 1.9162e+00 8.7126e-02 1.5429e-04]
tot grids = 190200
init E= -23.8623227009702
HOMO:  -0.334216305230892 LUMO:  -0.2926715309448406
Fermi energy:      -0.3134438679
[2.     2.     2.     2.     2.     2.     2.     2.     1.9691 0.0309]
entropy correction =  -0.0015953489687978233
cycle= 1 E= -25.3130573954094  delta_E= -1.45  |g|= 1.07  |ddm|= 18.3
HOMO:  -0.45883732744415634 LUMO:  -0.44779942354967056
Fermi energy:      -0.4533184356
[2.     2.     2.     2.     2.     2.     2.     2.     1.5019 0.4981]
entropy correction =  -0.011225959931093283
cycle= 2 E= -25.3469823648198  delta_E= -0.0339  |g|= 0.955  |ddm|= 7.72
HOMO:  -0.46649311088035067 LUMO:  -0.40055728672174773
Fermi energy:      -0.4335171013
[2.     2.     2.     2.     2.     2.     2.     2.     1.9973 0.0027]
entropy correction =  -0.00020833298710513977
cycle= 3 E= -25.5423666251022  delta_E= -0.195  |g|= 0.733  |ddm|= 4.76
HOMO:  -0.43157080934903175 LUMO:  -0.41648918323532674
Fermi energy:      -0.4240285558
[2.     2.     2.     2.     2.     2.     2.     1.9998 1.6377 0.3625]
entropy correction =  -0.009473388027894034
cycle= 4 E= -25.7137681473599  delta_E= -0.171  |g|= 0.151  |ddm|= 2.12
HOMO:  -0.4270975616094049 LUMO:  -0.4056232905704228
Fermi energy:      -0.4163600350
[2.     2.     2.     2.     2.     2.     2.     2.     1.7909 0.2092]
entropy correction =  -0.0067021529221327585
cycle= 5 E= -25.6768956643849  delta_E= 0.0369  |g|= 0.317  |ddm|= 2.49
HOMO:  -0.42713686401716233 LUMO:  -0.41417634344630366
Fermi energy:      -0.4206561918
[2.     2.     2.     2.     2.     2.     2.     1.9999 1.5704 0.4297]
entropy correction =  -0.010408961803538556
cycle= 6 E= -25.7242315031262  delta_E= -0.0473  |g|= 0.062  |ddm|= 1.61
HOMO:  -0.42628078389982804 LUMO:  -0.41803627888245076
Fermi energy:      -0.4221580442
[2.     2.     2.     2.     2.     2.     2.     1.9999 1.3904 0.6097]
entropy correction =  -0.012302474082795752
cycle= 7 E= -25.7242194232923  delta_E= 1.21e-05  |g|= 0.0559  |ddm|=  0.5
HOMO:  -0.42914641204608184 LUMO:  -0.41650198746131006
Fermi energy:      -0.4228235412
[2.     2.     2.     2.     2.     2.     2.     1.9999 1.5596 0.4405]
entropy correction =  -0.010548489756342901
cycle= 8 E= -25.725140693015  delta_E= -0.000921  |g|= 0.0385  |ddm|= 0.457
HOMO:  -0.42755264063560955 LUMO:  -0.4168486542048646
Fermi energy:      -0.4222001524
[2.     2.     2.     2.     2.     2.     2.     1.9999 1.4894 0.5107]
entropy correction =  -0.011366498863685572
cycle= 9 E= -25.7259013595639  delta_E= -0.000761  |g|= 0.00494  |ddm|= 0.168
HOMO:  -0.42762348694443786 LUMO:  -0.41689745788637894
Fermi energy:      -0.4222599678
[2.     2.     2.     2.     2.     2.     2.     1.9999 1.4902 0.5099]
entropy correction =  -0.011357592067546236
cycle= 10 E= -25.7259105887166  delta_E= -9.23e-06  |g|= 0.00251  |ddm|= 0.0297
HOMO:  -0.4275287383423742 LUMO:  -0.4169264334156125
Fermi energy:      -0.4222270865
[2.     2.     2.     2.     2.     2.     2.     1.9999 1.4855 0.5146]
entropy correction =  -0.0114078452804197
cycle= 11 E= -25.7259139953302  delta_E= -3.41e-06  |g|= 0.000554  |ddm|= 0.0123
HOMO:  -0.42750787414507624 LUMO:  -0.41692846768987313
Fermi energy:      -0.4222176731
[2.     2.     2.     2.     2.     2.     2.     1.9999 1.4846 0.5154]
entropy correction =  -0.011417110920079878
cycle= 12 E= -25.72591415915  delta_E= -1.64e-07  |g|= 2.19e-05  |ddm|= 0.00292
HOMO:  -0.4275089928107073 LUMO:  -0.41693019031173556
Fermi energy:      -0.4222190938
[2.     2.     2.     2.     2.     2.     2.     1.9999 1.4846 0.5155]
entropy correction =  -0.011417355217986822
cycle= 13 E= -25.7259141592817  delta_E= -1.32e-10  |g|= 9.73e-06  |ddm|= 0.000145
HOMO:  -0.42751156925323924 LUMO:  -0.41692913684230115
Fermi energy:      -0.4222198551
[2.     2.     2.     2.     2.     2.     2.     1.9999 1.4847 0.5153]
entropy correction =  -0.011415886766640916
Extra cycle  E= -25.7259141576102  delta_E= 1.67e-09  |g|= 5.89e-05  |ddm|= 0.000325
 Adding contributions from fluctuation of occupation numbers.
 Adding contributions from fluctuation of occupation numbers.
entropy correction =  -0.011415886766640916
2-norm (grad),       max(grad):
251.83278987865842 ,  47.480539896261675
time of hessian construction : 15.390  (cpu),  0.386  (wall) 
time of hessian construction : 14.060  (cpu),  0.352  (wall) 
f =  31709.87702903426
|umat| =  2.7485453492198184
rks_ao.ne_frozen =  0
Set gradient conv threshold to 3.16228e-05
Initial guess from hcore.
HOMO:  -3.5059340019112146 LUMO:  -3.312021734912919
Fermi energy:      -3.4072224863
[2. 2. 2. 2. 2. 2. 2. 2. 2.]
tot grids = 190200
init E= -10.1191031648802
HOMO:  -0.06786401486428806 LUMO:  -0.06744240935006578
Fermi energy:      -0.0721821496
[2.     2.     2.     2.     2.     2.     1.9949 1.9495 0.5932 0.5586
 0.4623 0.4416]
entropy correction =  -0.024044037408723105
cycle= 1 E= -10.2132527201866  delta_E= -0.0941  |g|= 2.75  |ddm|= 7.87
HOMO:  -0.779295365412552 LUMO:  -0.6495390629809322
Fermi energy:      -0.7131005568
[2. 2. 2. 2. 2. 2. 2. 2. 2.]
entropy correction =  -9.97260958580064e-07
cycle= 2 E= -11.5358335200794  delta_E= -1.32  |g|= 2.03  |ddm|= 6.48
HOMO:  -0.4507025039634875 LUMO:  -0.4177686586225081
Fermi energy:      -0.4349236755
[2.0000e+00 2.0000e+00 2.0000e+00 2.0000e+00 1.9997e+00 1.9970e+00
 1.9970e+00 1.9192e+00 1.9183e+00 6.2681e-02 6.1963e-02 2.6701e-02
 1.6885e-02 6.5622e-04]
entropy correction =  -0.007640864098256561
cycle= 3 E= -13.2315714371055  delta_E= -1.7  |g|= 0.547  |ddm|=  3.8
HOMO:  -0.36580218643161994 LUMO:  -0.365122337207038
Fermi energy:      -0.3679520461
[2.0000e+00 1.9988e+00 1.9955e+00 1.9948e+00 1.9764e+00 1.9753e+00
 1.8860e+00 1.2647e+00 7.8827e-01 7.2435e-01 6.0270e-01 5.5322e-01
 2.3962e-01 1.9699e-04]
entropy correction =  -0.039402422207264635
cycle= 4 E= -13.3636804426263  delta_E= -0.132  |g|= 0.212  |ddm|= 1.69
HOMO:  -0.3686282056880955 LUMO:  -0.36312020467333667
Fermi energy:      -0.3676976937
[2.0000e+00 1.9998e+00 1.9987e+00 1.9984e+00 1.9834e+00 1.9773e+00
 1.9464e+00 1.4365e+00 1.0928e+00 5.7175e-01 4.6889e-01 4.4704e-01
 7.8922e-02 1.6474e-04]
entropy correction =  -0.03371503644915488
cycle= 5 E= -13.0108925926615  delta_E= 0.353  |g|= 0.747  |ddm|=  1.4
HOMO:  -0.37331550197026164 LUMO:  -0.3690363723262541
Fermi energy:      -0.3717907883
[2.0000e+00 1.9998e+00 1.9968e+00 1.9946e+00 1.9725e+00 1.9666e+00
 1.9608e+00 1.1717e+00 1.1513e+00 7.3132e-01 4.9164e-01 4.7186e-01
 9.0639e-02 2.0295e-04]
entropy correction =  -0.03591116295140376
cycle= 6 E= -13.3865157136968  delta_E= -0.376  |g|= 0.136  |ddm|= 1.05
HOMO:  -0.37184312719600776 LUMO:  -0.3710078599639639
Fermi energy:      -0.3712689102
[2.0000e+00 1.9994e+00 1.9961e+00 1.9865e+00 1.9769e+00 1.9489e+00
 1.9251e+00 1.2249e+00 1.0574e+00 9.7390e-01 5.5362e-01 2.8890e-01
 6.8251e-02 2.2170e-04]
entropy correction =  -0.03603831346817507
cycle= 7 E= -13.3714186947771  delta_E= 0.0151  |g|= 0.164  |ddm|= 0.595
HOMO:  -0.37038004390648727 LUMO:  -0.3676706010902707
Fermi energy:      -0.3698260282
[2.0000e+00 1.9991e+00 1.9917e+00 1.9897e+00 1.9615e+00 1.9538e+00
 1.9375e+00 1.1705e+00 1.0553e+00 7.8773e-01 5.4296e-01 5.2630e-01
 8.3585e-02 2.3853e-04]
entropy correction =  -0.03783596920005834
cycle= 8 E= -13.3968412774786  delta_E= -0.0254  |g|= 0.0692  |ddm|= 0.501
HOMO:  -0.3684484147947085 LUMO:  -0.3661849857004466
Fermi energy:      -0.3679846473
[2.0000e+00 1.9990e+00 1.9907e+00 1.9877e+00 1.9631e+00 1.9555e+00
 1.9384e+00 1.0880e+00 1.0463e+00 8.2195e-01 5.6685e-01 5.5494e-01
 8.7300e-02 2.3342e-04]
entropy correction =  -0.038333390139451105
cycle= 9 E= -13.3895503054966  delta_E= 0.00729  |g|= 0.125  |ddm|= 0.276
HOMO:  -0.3646285230496924 LUMO:  -0.36422996621347226
Fermi energy:      -0.3653420774
[2.0000e+00 1.9989e+00 1.9877e+00 1.9834e+00 1.9636e+00 1.9626e+00
 1.9364e+00 1.0372e+00 9.2877e-01 8.8925e-01 6.2698e-01 5.9002e-01
 9.4982e-02 2.2653e-04]
entropy correction =  -0.039057037297292416
cycle= 10 E= -13.3994678726124  delta_E= -0.00992  |g|= 0.0357  |ddm|= 0.244
HOMO:  -0.36474578944454805 LUMO:  -0.36404911694707476
Fermi energy:      -0.3650666494
[2.0000e+00 1.9990e+00 1.9876e+00 1.9855e+00 1.9630e+00 1.9623e+00
 1.9395e+00 9.8369e-01 9.6793e-01 8.9860e-01 6.0922e-01 6.0471e-01
 9.8876e-02 2.2539e-04]
entropy correction =  -0.03905764757381375
cycle= 11 E= -13.4004886771895  delta_E= -0.00102  |g|= 0.0215  |ddm|= 0.119
HOMO:  -0.36526257034423953 LUMO:  -0.364258018784148
Fermi energy:      -0.3654099413
[2.0000e+00 1.9990e+00 1.9884e+00 1.9862e+00 1.9620e+00 1.9615e+00
 1.9393e+00 1.0025e+00 9.8526e-01 8.8531e-01 5.9879e-01 5.9422e-01
 9.7342e-02 2.2863e-04]
entropy correction =  -0.03893623370185221
cycle= 12 E= -13.4002537099188  delta_E= 0.000235  |g|= 0.0297  |ddm|= 0.0815
HOMO:  -0.36603661857443 LUMO:  -0.3647030673935822
Fermi energy:      -0.3659772834
[2.0000e+00 1.9990e+00 1.9890e+00 1.9869e+00 1.9612e+00 1.9609e+00
 1.9384e+00 1.0099e+00 1.0059e+00 8.7326e-01 5.9113e-01 5.8769e-01
 9.6453e-02 2.3142e-04]
entropy correction =  -0.038857471780876236
cycle= 13 E= -13.400854284247  delta_E= -0.000601  |g|= 0.00221  |ddm|= 0.0559
HOMO:  -0.36610822319441205 LUMO:  -0.3647542433287145
Fermi energy:      -0.3660490113
[2.0000e+00 1.9990e+00 1.9888e+00 1.9870e+00 1.9618e+00 1.9605e+00
 1.9389e+00 1.0108e+00 1.0059e+00 8.7124e-01 5.9275e-01 5.8693e-01
 9.6057e-02 2.3080e-04]
entropy correction =  -0.038841720045580536
cycle= 14 E= -13.4008454808795  delta_E= 8.8e-06  |g|= 0.00359  |ddm|= 0.0145
HOMO:  -0.3661391296194252 LUMO:  -0.36476191994081447
Fermi energy:      -0.3660679433
[2.0000e+00 1.9990e+00 1.9889e+00 1.9868e+00 1.9614e+00 1.9611e+00
 1.9393e+00 1.0095e+00 1.0071e+00 8.7014e-01 5.9194e-01 5.8864e-01
 9.5909e-02 2.3023e-04]
entropy correction =  -0.03883244062369242
cycle= 15 E= -13.4008571574465  delta_E= -1.17e-05  |g|= 0.0013  |ddm|= 0.0123
HOMO:  -0.36616477160374045 LUMO:  -0.364784821031204
Fermi energy:      -0.3660835188
[2.0000e+00 1.9990e+00 1.9889e+00 1.9869e+00 1.9613e+00 1.9610e+00
 1.9388e+00 1.0088e+00 1.0081e+00 8.7086e-01 5.9203e-01 5.8814e-01
 9.5991e-02 2.3090e-04]
entropy correction =  -0.03884590098530453
cycle= 16 E= -13.4008589658302  delta_E= -1.81e-06  |g|= 0.000539  |ddm|= 0.00434
HOMO:  -0.36615679436964077 LUMO:  -0.3647860958408251
Fermi energy:      -0.3660820819
[2.0000e+00 1.9990e+00 1.9889e+00 1.9868e+00 1.9615e+00 1.9608e+00
 1.9387e+00 1.0092e+00 1.0075e+00 8.7112e-01 5.9155e-01 5.8874e-01
 9.6014e-02 2.3104e-04]
entropy correction =  -0.0388504027431371
cycle= 17 E= -13.4008576611095  delta_E= 1.3e-06  |g|= 0.00123  |ddm|= 0.00416
HOMO:  -0.36615238398074285 LUMO:  -0.3647763942841044
Fermi energy:      -0.3660725808
[2.0000e+00 1.9990e+00 1.9889e+00 1.9869e+00 1.9613e+00 1.9610e+00
 1.9388e+00 1.0083e+00 1.0080e+00 8.7110e-01 5.9218e-01 5.8831e-01
 9.6022e-02 2.3083e-04]
entropy correction =  -0.03884757073924793
cycle= 18 E= -13.4008564642445  delta_E= 1.2e-06  |g|= 0.00192  |ddm|= 0.00519
HOMO:  -0.3661332422492781 LUMO:  -0.3647694106970794
Fermi energy:      -0.3660624680
[2.0000e+00 1.9990e+00 1.9889e+00 1.9868e+00 1.9613e+00 1.9610e+00
 1.9388e+00 1.0085e+00 1.0071e+00 8.7141e-01 5.9233e-01 5.8855e-01
 9.6051e-02 2.3090e-04]
entropy correction =  -0.038852083457701636
cycle= 19 E= -13.4008591350379  delta_E= -2.67e-06  |g|= 0.000258  |ddm|= 0.00331
HOMO:  -0.3661262261660417 LUMO:  -0.3647625184816007
Fermi energy:      -0.3660538391
[2.0000e+00 1.9990e+00 1.9889e+00 1.9868e+00 1.9614e+00 1.9610e+00
 1.9388e+00 1.0079e+00 1.0072e+00 8.7158e-01 5.9230e-01 5.8887e-01
 9.6070e-02 2.3086e-04]
entropy correction =  -0.03885372105745495
cycle= 20 E= -13.4008587854043  delta_E= 3.5e-07  |g|= 0.00075  |ddm|= 0.00189
HOMO:  -0.3661375232794973 LUMO:  -0.3647696443882211
Fermi energy:      -0.3660622166
[2.0000e+00 1.9990e+00 1.9889e+00 1.9868e+00 1.9613e+00 1.9610e+00
 1.9388e+00 1.0081e+00 1.0075e+00 8.7146e-01 5.9216e-01 5.8862e-01
 9.6067e-02 2.3087e-04]
entropy correction =  -0.03885152580900763
cycle= 21 E= -13.4008591282104  delta_E= -3.43e-07  |g|= 0.000365  |ddm|= 0.00151
HOMO:  -0.3661389728975736 LUMO:  -0.3647710613503067
Fermi energy:      -0.3660637888
[2.0000e+00 1.9990e+00 1.9889e+00 1.9868e+00 1.9613e+00 1.9610e+00
 1.9388e+00 1.0082e+00 1.0075e+00 8.7144e-01 5.9215e-01 5.8857e-01
 9.6067e-02 2.3088e-04]
entropy correction =  -0.038851337603842545
cycle= 22 E= -13.4008592163495  delta_E= -8.81e-08  |g|= 3.2e-05  |ddm|= 0.000639
HOMO:  -0.36614185285256134 LUMO:  -0.36477230898868146
Fermi energy:      -0.3660657627
[2.0000e+00 1.9990e+00 1.9889e+00 1.9868e+00 1.9613e+00 1.9610e+00
 1.9388e+00 1.0082e+00 1.0076e+00 8.7137e-01 5.9214e-01 5.8852e-01
 9.6058e-02 2.3088e-04]
entropy correction =  -0.038850693407906776
cycle= 23 E= -13.4008592165027  delta_E= -1.53e-10  |g|= 2.82e-05  |ddm|= 0.000132
HOMO:  -0.36614120683781726 LUMO:  -0.36477251072513023
Fermi energy:      -0.3660661102
[2.0000e+00 1.9990e+00 1.9889e+00 1.9868e+00 1.9613e+00 1.9610e+00
 1.9388e+00 1.0084e+00 1.0075e+00 8.7136e-01 5.9211e-01 5.8855e-01
 9.6055e-02 2.3088e-04]
entropy correction =  -0.03885067808998983
Extra cycle  E= -13.4008591820702  delta_E= 3.44e-08  |g|= 0.000187  |ddm|= 0.000565
entropy correction =  -0.03885067808998983
rks_ao.ne_frozen =  0
Set gradient conv threshold to 3.16228e-05
Initial guess from hcore.
HOMO:  -2.5703663608337224 LUMO:  -2.5699491896966657
Fermi energy:      -2.5707909382
[2.0000e+00 2.0000e+00 2.0000e+00 2.0000e+00 2.0000e+00 2.0000e+00
 2.0000e+00 1.9959e+00 9.5757e-01 9.1602e-01 6.1730e-02 5.9528e-02
 4.4676e-03 4.0880e-03 7.5972e-04]
tot grids = 190200
init E= -9.69343580081851
HOMO:  0.02001270983415414 LUMO:  0.02289339249392891
Fermi energy:       0.0199039843
[2.     2.     2.     2.     2.     2.     1.9951 1.355  0.9891 0.7097
 0.4321 0.225  0.1128 0.085  0.0457 0.0372 0.0082 0.0027 0.0024]
entropy correction =  -0.03503561386186875
cycle= 1 E= -10.9808086989877  delta_E= -1.29  |g|= 2.09  |ddm|= 9.54
HOMO:  -0.4502906099222679 LUMO:  -0.4398775526974075
Fermi energy:      -0.4449111860
[2.     2.     2.     2.     2.     2.     1.9993 1.5656 1.4914 0.5352
 0.1982 0.1743 0.0335 0.0022]
entropy correction =  -0.023877415631219985
cycle= 2 E= -11.0733565998525  delta_E= -0.0925  |g|= 2.12  |ddm|= 9.35
HOMO:  -0.296953059822671 LUMO:  -0.2831693115319095
Fermi energy:      -0.2888147697
[2.     2.     2.     2.     1.9965 1.9852 1.9766 1.6944 1.6717 0.4887
 0.0687 0.0634 0.0483 0.0034 0.0031]
entropy correction =  -0.01978335594170721
cycle= 3 E= -12.2916870200559  delta_E= -1.22  |g|= 0.887  |ddm|= 1.82
HOMO:  -0.2596246393000697 LUMO:  -0.25643604135848247
Fermi energy:      -0.2579744302
[2.0000e+00 2.0000e+00 2.0000e+00 2.0000e+00 1.9992e+00 1.9520e+00
 1.9055e+00 1.7507e+00 1.1635e+00 8.4736e-01 1.5810e-01 1.4008e-01
 8.0734e-02 1.8233e-03 8.7056e-04 1.4657e-04]
entropy correction =  -0.02755758030790524
cycle= 4 E= -11.4889552319079  delta_E= 0.803  |g|= 1.31  |ddm|= 2.14
HOMO:  -0.23806187441804175 LUMO:  -0.23185275305890204
Fermi energy:      -0.2353966917
[2.0000e+00 2.0000e+00 2.0000e+00 2.0000e+00 1.9702e+00 1.9344e+00
 1.8466e+00 1.2827e+00 1.2604e+00 6.5973e-01 6.5157e-01 2.8578e-01
 7.3352e-02 2.1793e-02 1.3077e-02 4.9815e-04]
entropy correction =  -0.0373851687309874
cycle= 5 E= -12.7612365427247  delta_E= -1.27  |g|= 0.126  |ddm|= 2.07
HOMO:  -0.21707392452449803 LUMO:  -0.21453231459137148
Fermi energy:      -0.2157896272
[2.0000e+00 2.0000e+00 2.0000e+00 2.0000e+00 1.9568e+00 1.9427e+00
 1.7664e+00 1.5432e+00 1.1277e+00 8.7493e-01 4.0742e-01 2.4200e-01
 1.0974e-01 1.6748e-02 1.1845e-02 5.1983e-04]
entropy correction =  -0.036765094484914426
cycle= 6 E= -12.5589868497071  delta_E= 0.202  |g|= 0.525  |ddm|= 1.38
HOMO:  -0.21727877708894563 LUMO:  -0.21293043016849889
Fermi energy:      -0.2147440048
[2.0000e+00 2.0000e+00 2.0000e+00 2.0000e+00 1.9293e+00 1.7867e+00
 1.7504e+00 1.2647e+00 1.2482e+00 8.2061e-01 7.2187e-01 3.5082e-01
 9.2460e-02 1.9097e-02 1.5159e-02 7.2236e-04]
entropy correction =  -0.04272678443637303
cycle= 7 E= -12.771785470081  delta_E= -0.213  |g|= 0.0551  |ddm|=  1.1
HOMO:  -0.2176823956877029 LUMO:  -0.2136753900580611
Fermi energy:      -0.2153425537
[2.0000e+00 2.0000e+00 2.0000e+00 2.0000e+00 1.9362e+00 1.8674e+00
 1.7139e+00 1.2308e+00 1.2298e+00 8.3481e-01 6.9072e-01 3.7673e-01
 8.7099e-02 1.6251e-02 1.5708e-02 6.2944e-04]
entropy correction =  -0.042113971007308064
cycle= 8 E= -12.7687537356224  delta_E= 0.00303  |g|= 0.0876  |ddm|= 0.307
HOMO:  -0.21784395759171024 LUMO:  -0.21286832154233187
Fermi energy:      -0.2154365420
[2.0000e+00 2.0000e+00 2.0000e+00 2.0000e+00 1.9331e+00 1.8182e+00
 1.7871e+00 1.2458e+00 1.2362e+00 7.4868e-01 7.3546e-01 3.7637e-01
 8.6824e-02 1.6219e-02 1.5365e-02 6.3980e-04]
entropy correction =  -0.04193976661725457
cycle= 9 E= -12.7727063642689  delta_E= -0.00395  |g|= 0.0546  |ddm|= 0.252
HOMO:  -0.21721532219001297 LUMO:  -0.21239820653525185
Fermi energy:      -0.2148772433
[2.0000e+00 2.0000e+00 2.0000e+00 2.0000e+00 1.9314e+00 1.8182e+00
 1.8001e+00 1.2344e+00 1.2296e+00 7.5705e-01 7.3237e-01 3.7746e-01
 8.7248e-02 1.6006e-02 1.5534e-02 6.5277e-04]
entropy correction =  -0.04189985120482713
cycle= 10 E= -12.7743727626126  delta_E= -0.00167  |g|= 0.0276  |ddm|= 0.114
HOMO:  -0.21755965462354632 LUMO:  -0.21265661524889054
Fermi energy:      -0.2152084768
[2.0000e+00 2.0000e+00 2.0000e+00 2.0000e+00 1.9312e+00 1.8093e+00
 1.8024e+00 1.2364e+00 1.2309e+00 7.5021e-01 7.4555e-01 3.7476e-01
 8.7054e-02 1.6210e-02 1.5445e-02 6.4758e-04]
entropy correction =  -0.04196897082582313
cycle= 11 E= -12.7746905137082  delta_E= -0.000318  |g|= 0.0195  |ddm|= 0.0695
HOMO:  -0.21788590142009634 LUMO:  -0.21300776158207424
Fermi energy:      -0.2155318911
[2.0000e+00 2.0000e+00 2.0000e+00 2.0000e+00 1.9312e+00 1.8057e+00
[...]
HOMO:  -0.36639845770872576 LUMO:  -0.36505958672754646
Fermi energy:      -0.3663404925
[2.0000e+00 1.9988e+00 1.9880e+00 1.9860e+00 1.9629e+00 1.9627e+00
 1.9382e+00 1.0080e+00 1.0058e+00 8.7261e-01 5.9324e-01 5.8798e-01
 9.5461e-02 2.3591e-04]
entropy correction =  -0.03884058029633393
cycle= 14 E= -13.402173942754  delta_E= 3.3e-06  |g|= 0.00222  |ddm|= 0.0049
HOMO:  -0.36635883165826555 LUMO:  -0.36503433932998397
Fermi energy:      -0.3663098921
[2.0000e+00 1.9988e+00 1.9879e+00 1.9859e+00 1.9629e+00 1.9629e+00
 1.9384e+00 1.0067e+00 1.0049e+00 8.7313e-01 5.9373e-01 5.8890e-01
 9.5506e-02 2.3559e-04]
entropy correction =  -0.03884438656696447
cycle= 15 E= -13.4021768740342  delta_E= -2.93e-06  |g|= 0.000884  |ddm|= 0.00423
HOMO:  -0.366384498659407 LUMO:  -0.36505129708055467
Fermi energy:      -0.3663279788
[2.0000e+00 1.9988e+00 1.9879e+00 1.9860e+00 1.9630e+00 1.9627e+00
 1.9382e+00 1.0069e+00 1.0057e+00 8.7302e-01 5.9352e-01 5.8848e-01
 9.5501e-02 2.3579e-04]
entropy correction =  -0.038844307114462566
cycle= 16 E= -13.4021772818237  delta_E= -4.08e-07  |g|= 0.000617  |ddm|= 0.00302
HOMO:  -0.3664023512465917 LUMO:  -0.36506207162047966
Fermi energy:      -0.3663404604
[2.0000e+00 1.9988e+00 1.9880e+00 1.9860e+00 1.9630e+00 1.9627e+00
 1.9382e+00 1.0070e+00 1.0062e+00 8.7285e-01 5.9315e-01 5.8842e-01
 9.5489e-02 2.3588e-04]
entropy correction =  -0.0388428744976233
cycle= 17 E= -13.402177304052  delta_E= -2.22e-08  |g|= 0.000697  |ddm|= 0.00203
HOMO:  -0.3664040713841828 LUMO:  -0.3650632828760409
Fermi energy:      -0.3663421100
[2.0000e+00 1.9988e+00 1.9880e+00 1.9860e+00 1.9629e+00 1.9627e+00
 1.9382e+00 1.0071e+00 1.0062e+00 8.7281e-01 5.9304e-01 5.8847e-01
 9.5485e-02 2.3589e-04]
entropy correction =  -0.038842515113382346
cycle= 18 E= -13.4021775926336  delta_E= -2.89e-07  |g|= 0.000232  |ddm|= 0.00154
HOMO:  -0.3663915747521651 LUMO:  -0.3650543923202658
Fermi energy:      -0.3663318215
[2.0000e+00 1.9988e+00 1.9880e+00 1.9860e+00 1.9630e+00 1.9627e+00
 1.9382e+00 1.0067e+00 1.0060e+00 8.7295e-01 5.9328e-01 5.8864e-01
 9.5492e-02 2.3585e-04]
entropy correction =  -0.03884448669810983
cycle= 19 E= -13.402177613761  delta_E= -2.11e-08  |g|= 0.000185  |ddm|= 0.000668
HOMO:  -0.3663924480366784 LUMO:  -0.36505483732505406
Fermi energy:      -0.3663326155
[2.0000e+00 1.9988e+00 1.9880e+00 1.9860e+00 1.9630e+00 1.9627e+00
 1.9382e+00 1.0068e+00 1.0060e+00 8.7291e-01 5.9328e-01 5.8861e-01
 9.5489e-02 2.3584e-04]
entropy correction =  -0.03884391542720323
cycle= 20 E= -13.4021776372839  delta_E= -2.35e-08  |g|= 5.79e-05  |ddm|= 0.000362
HOMO:  -0.36639287817107136 LUMO:  -0.3650548964244485
Fermi energy:      -0.3663328993
[2.0000e+00 1.9988e+00 1.9880e+00 1.9860e+00 1.9630e+00 1.9627e+00
 1.9382e+00 1.0068e+00 1.0060e+00 8.7289e-01 5.9325e-01 5.8861e-01
 9.5488e-02 2.3583e-04]
entropy correction =  -0.03884352054177813
cycle= 21 E= -13.402177638812  delta_E= -1.53e-09  |g|= 2.71e-05  |ddm|= 0.000156
HOMO:  -0.3663943555119383 LUMO:  -0.36505552608797803
Fermi energy:      -0.3663338862
[2.0000e+00 1.9988e+00 1.9880e+00 1.9860e+00 1.9630e+00 1.9627e+00
 1.9382e+00 1.0068e+00 1.0060e+00 8.7286e-01 5.9324e-01 5.8858e-01
 9.5486e-02 2.3582e-04]
entropy correction =  -0.03884295323704977
cycle= 22 E= -13.4021776382127  delta_E= 5.99e-10  |g|= 3.72e-05  |ddm|= 0.000189
HOMO:  -0.36639277158166256 LUMO:  -0.36505477162251493
Fermi energy:      -0.3663327687
[2.0000e+00 1.9988e+00 1.9880e+00 1.9860e+00 1.9630e+00 1.9627e+00
 1.9382e+00 1.0068e+00 1.0060e+00 8.7289e-01 5.9326e-01 5.8860e-01
 9.5489e-02 2.3583e-04]
entropy correction =  -0.038843529740068744
cycle= 23 E= -13.4021776397764  delta_E= -1.56e-09  |g|= 5.89e-06  |ddm|= 0.000118
HOMO:  -0.3663924458816701 LUMO:  -0.36505454634975926
Fermi energy:      -0.3663325234
[2.0000e+00 1.9988e+00 1.9880e+00 1.9860e+00 1.9630e+00 1.9627e+00
 1.9382e+00 1.0068e+00 1.0060e+00 8.7289e-01 5.9326e-01 5.8861e-01
 9.5489e-02 2.3583e-04]
entropy correction =  -0.03884355722748037
cycle= 24 E= -13.4021776393996  delta_E= 3.77e-10  |g|= 2.34e-05  |ddm|= 4.29e-05
HOMO:  -0.3663937595011952 LUMO:  -0.365055259746073
Fermi energy:      -0.3663333386
[2.0000e+00 1.9988e+00 1.9880e+00 1.9860e+00 1.9630e+00 1.9627e+00
 1.9382e+00 1.0068e+00 1.0060e+00 8.7288e-01 5.9325e-01 5.8859e-01
 9.5488e-02 2.3583e-04]
entropy correction =  -0.03884342002212394
Extra cycle  E= -13.4021775804304  delta_E= 5.9e-08  |g|= 0.00029  |ddm|= 0.000457
entropy correction =  -0.03884342002212394
rks_ao.ne_frozen =  0
Set gradient conv threshold to 3.16228e-05
tot grids = 190200
init E= -9.12409660460348
HOMO:  -0.1819264763942931 LUMO:  -0.17107868994335576
Fermi energy:      -0.1748450692
[2.0000e+00 2.0000e+00 2.0000e+00 2.0000e+00 1.9168e+00 1.8532e+00
 1.8523e+00 1.6121e+00 1.6095e+00 6.4022e-01 3.7145e-01 6.0704e-02
 5.9315e-02 1.1798e-02 1.1612e-02 1.0324e-03]
entropy correction =  -0.031372569007480214
cycle= 1 E= -12.4369597508594  delta_E= -3.31  |g|= 0.773  |ddm|= 5.23
HOMO:  -0.132955067986716 LUMO:  -0.1298359184039446
Fermi energy:      -0.1289924464
[2.0000e+00 2.0000e+00 2.0000e+00 2.0000e+00 2.0000e+00 2.0000e+00
 1.9817e+00 1.3948e+00 1.3767e+00 1.0841e+00 4.9114e-02 4.6179e-02
 4.2227e-02 1.2003e-02 1.0665e-02 1.0334e-03 5.8108e-04 5.0816e-04
 2.9078e-04]
entropy correction =  -0.023834696467323137
cycle= 2 E= -12.3585756234402  delta_E= 0.0784  |g|= 0.988  |ddm|= 2.91
HOMO:  -0.21788230929796135 LUMO:  -0.2095305134803464
Fermi energy:      -0.2147068449
[2.0000e+00 2.0000e+00 2.0000e+00 2.0000e+00 1.9881e+00 1.9877e+00
 1.9672e+00 1.3127e+00 1.3073e+00 5.2413e-01 3.9114e-01 3.8798e-01
 1.0070e-01 1.6124e-02 1.5867e-02 1.1870e-03]
entropy correction =  -0.03305396725781949
cycle= 3 E= -12.7480914905317  delta_E= -0.39  |g|= 0.227  |ddm|= 1.39
HOMO:  -0.21839220373712553 LUMO:  -0.21361407477434358
Fermi energy:      -0.2161341273
[2.0000e+00 2.0000e+00 2.0000e+00 2.0000e+00 1.9297e+00 1.8282e+00
 1.8100e+00 1.2265e+00 1.2220e+00 7.5320e-01 7.4464e-01 3.5809e-01
 9.4865e-02 1.6117e-02 1.5578e-02 9.5549e-04]
entropy correction =  -0.041745171595972595
cycle= 4 E= -12.773058822437  delta_E= -0.025  |g|= 0.0705  |ddm|= 0.536
HOMO:  -0.218595680991585 LUMO:  -0.21386171239407237
Fermi energy:      -0.2162148504
[2.0000e+00 2.0000e+00 2.0000e+00 2.0000e+00 1.9364e+00 1.8090e+00
 1.7910e+00 1.2457e+00 1.2337e+00 7.6894e-01 7.1198e-01 3.8240e-01
 9.1544e-02 1.4706e-02 1.3798e-02 9.0236e-04]
entropy correction =  -0.04198938932283504
cycle= 5 E= -12.7557558700128  delta_E= 0.0173  |g|= 0.168  |ddm|= 0.35
HOMO:  -0.21825585031106767 LUMO:  -0.21351237967807346
Fermi energy:      -0.2159873046
[2.0000e+00 2.0000e+00 2.0000e+00 2.0000e+00 1.9338e+00 1.8161e+00
 1.7992e+00 1.2267e+00 1.2230e+00 7.5744e-01 7.3924e-01 3.8319e-01
 8.8903e-02 1.6040e-02 1.5559e-02 8.7883e-04]
entropy correction =  -0.04202315269171158
cycle= 6 E= -12.7769163405138  delta_E= -0.0212  |g|= 0.0199  |ddm|= 0.262
HOMO:  -0.21815955890104521 LUMO:  -0.21321262900641907
Fermi energy:      -0.2157440955
[2.0000e+00 2.0000e+00 2.0000e+00 2.0000e+00 1.9321e+00 1.8222e+00
 1.7871e+00 1.2390e+00 1.2370e+00 7.5213e-01 7.3146e-01 3.7760e-01
 8.8226e-02 1.6416e-02 1.5908e-02 9.2149e-04]
entropy correction =  -0.041982853013030626
cycle= 7 E= -12.7763379649703  delta_E= 0.000578  |g|= 0.0367  |ddm|= 0.114
HOMO:  -0.2180938492121367 LUMO:  -0.2131640659052255
Fermi energy:      -0.2157328442
[2.0000e+00 2.0000e+00 2.0000e+00 2.0000e+00 1.9315e+00 1.8060e+00
 1.8028e+00 1.2374e+00 1.2318e+00 7.4863e-01 7.4492e-01 3.7535e-01
 8.8256e-02 1.6321e-02 1.6066e-02 9.3271e-04]
entropy correction =  -0.04203659051336871
cycle= 8 E= -12.777322748824  delta_E= -0.000985  |g|= 0.00394  |ddm|= 0.0777
HOMO:  -0.21822720201389192 LUMO:  -0.21334565486310558
Fermi energy:      -0.2158663829
[2.0000e+00 2.0000e+00 2.0000e+00 2.0000e+00 1.9316e+00 1.8074e+00
 1.7995e+00 1.2360e+00 1.2318e+00 7.5313e-01 7.4525e-01 3.7402e-01
 8.8046e-02 1.6307e-02 1.5970e-02 9.2580e-04]
entropy correction =  -0.04205509246620236
cycle= 9 E= -12.7772727181014  delta_E= 5e-05  |g|= 0.00906  |ddm|= 0.0207
HOMO:  -0.2183109889576555 LUMO:  -0.21344467924095625
Fermi energy:      -0.2159489853
[2.0000e+00 2.0000e+00 2.0000e+00 2.0000e+00 1.9317e+00 1.8047e+00
 1.8002e+00 1.2351e+00 1.2319e+00 7.5468e-01 7.4752e-01 3.7317e-01
 8.7903e-02 1.6284e-02 1.5944e-02 9.2141e-04]
entropy correction =  -0.04207920419265498
cycle= 10 E= -12.7773286376053  delta_E= -5.59e-05  |g|= 0.00303  |ddm|= 0.0146
HOMO:  -0.21831692650187356 LUMO:  -0.2134300403182027
Fermi energy:      -0.2159582695
[2.0000e+00 2.0000e+00 2.0000e+00 2.0000e+00 1.9317e+00 1.8045e+00
 1.8004e+00 1.2349e+00 1.2316e+00 7.5243e-01 7.5050e-01 3.7297e-01
 8.7877e-02 1.6237e-02 1.5965e-02 9.2008e-04]
entropy correction =  -0.04207940671105767
cycle= 11 E= -12.777333211753  delta_E= -4.57e-06  |g|= 0.00206  |ddm|= 0.0104
HOMO:  -0.2183124888911296 LUMO:  -0.21343034467210825
Fermi energy:      -0.2159604369
[2.0000e+00 2.0000e+00 2.0000e+00 2.0000e+00 1.9317e+00 1.8025e+00
 1.8013e+00 1.2359e+00 1.2310e+00 7.5225e-01 7.5133e-01 3.7313e-01
 8.7859e-02 1.6243e-02 1.5971e-02 9.1932e-04]
entropy correction =  -0.0420938129570595
cycle= 12 E= -12.7773350763386  delta_E= -1.86e-06  |g|= 0.00134  |ddm|= 0.00674
HOMO:  -0.21828008400566604 LUMO:  -0.21338526166606347
Fermi energy:      -0.2159243166
[2.0000e+00 2.0000e+00 2.0000e+00 2.0000e+00 1.9317e+00 1.8037e+00
 1.8022e+00 1.2353e+00 1.2313e+00 7.5141e-01 7.5019e-01 3.7317e-01
 8.7863e-02 1.6236e-02 1.5969e-02 9.2095e-04]
entropy correction =  -0.04206580480617781
cycle= 13 E= -12.7773366636909  delta_E= -1.59e-06  |g|= 8.25e-05  |ddm|= 0.00353
HOMO:  -0.2182791338212765 LUMO:  -0.21338391952098304
Fermi energy:      -0.2159222590
[2.0000e+00 2.0000e+00 2.0000e+00 2.0000e+00 1.9317e+00 1.8036e+00
 1.8020e+00 1.2354e+00 1.2314e+00 7.5148e-01 7.5020e-01 3.7318e-01
 8.7831e-02 1.6237e-02 1.5971e-02 9.2074e-04]
entropy correction =  -0.042067967453122045
cycle= 14 E= -12.7773366404067  delta_E= 2.33e-08  |g|= 0.000196  |ddm|= 0.000422
HOMO:  -0.21827873336783998 LUMO:  -0.21338319564280112
Fermi energy:      -0.2159217415
[2.0000e+00 2.0000e+00 2.0000e+00 2.0000e+00 1.9317e+00 1.8036e+00
 1.8020e+00 1.2354e+00 1.2314e+00 7.5146e-01 7.5022e-01 3.7317e-01
 8.7832e-02 1.6238e-02 1.5971e-02 9.2081e-04]
entropy correction =  -0.042067971595030944
cycle= 15 E= -12.777336669443  delta_E= -2.9e-08  |g|= 1.67e-05  |ddm|= 0.000308
HOMO:  -0.2182803363929956 LUMO:  -0.21338500337030822
Fermi energy:      -0.2159236386
[2.0000e+00 2.0000e+00 2.0000e+00 2.0000e+00 1.9317e+00 1.8035e+00
 1.8021e+00 1.2354e+00 1.2314e+00 7.5145e-01 7.5026e-01 3.7316e-01
 8.7833e-02 1.6238e-02 1.5969e-02 9.2073e-04]
entropy correction =  -0.04206777445074935
cycle= 16 E= -12.7773366675361  delta_E= 1.91e-09  |g|= 5.19e-05  |ddm|= 0.000156
HOMO:  -0.2182807510620157 LUMO:  -0.21338569415695802
Fermi energy:      -0.2159240527
[2.0000e+00 2.0000e+00 2.0000e+00 2.0000e+00 1.9317e+00 1.8036e+00
 1.8021e+00 1.2354e+00 1.2314e+00 7.5148e-01 7.5025e-01 3.7315e-01
 8.7834e-02 1.6237e-02 1.5970e-02 9.2072e-04]
entropy correction =  -0.042067734199686777
cycle= 17 E= -12.7773366693433  delta_E= -1.81e-09  |g|= 2.19e-05  |ddm|= 0.000137
HOMO:  -0.21828049454145362 LUMO:  -0.21338544070678614
Fermi energy:      -0.2159237874
[2.0000e+00 2.0000e+00 2.0000e+00 2.0000e+00 1.9317e+00 1.8036e+00
 1.8020e+00 1.2354e+00 1.2314e+00 7.5148e-01 7.5024e-01 3.7315e-01
 8.7834e-02 1.6237e-02 1.5970e-02 9.2074e-04]
entropy correction =  -0.042067722919153956
cycle= 18 E= -12.7773366695726  delta_E= -2.29e-10  |g|= 1.29e-05  |ddm|= 6.46e-05
HOMO:  -0.21828023580246364 LUMO:  -0.2133847381105771
Fermi energy:      -0.2159234630
[2.0000e+00 2.0000e+00 2.0000e+00 2.0000e+00 1.9317e+00 1.8035e+00
 1.8021e+00 1.2354e+00 1.2314e+00 7.5144e-01 7.5028e-01 3.7315e-01
 8.7833e-02 1.6239e-02 1.5969e-02 9.2075e-04]
entropy correction =  -0.04206781311927602
Extra cycle  E= -12.7773366643117  delta_E= 5.26e-09  |g|= 8.28e-05  |ddm|= 0.000191
entropy correction =  -0.04206781311927602
scf energies:
EA (no vemb contrib.) =  -34.78984668661617
EB (no vemb contrib.) =  -24.95063169994229
W =  -59.63644643891719
P_imp change (scf - non-scf):  0.007359422869347443
P_bath change (scf - non-scf):  0.008934171684052625
|P_frag + P_env - P_ref| =  0.06845598629456301
max element of (P_frag + P_env - P_ref) =  0.003839720385331126
mo orthogonality:
[[ 1.6253e-07 -8.7572e-06 -1.7233e-05  1.5527e-02  8.7087e-06 -2.0191e-05
  -1.1415e-05 -2.0809e-06  1.0489e-05  7.8664e-05  6.2113e-05 -5.5925e-05
   3.4169e-01  4.2089e-04  7.1437e-04  4.4087e-01 -1.8435e-04  8.0775e-04
   4.9309e-05]
 [-2.1857e-06 -4.0183e-05  8.4704e-03  9.4239e-06  2.5540e-06 -4.0439e-06
   1.5154e-06  6.4081e-05 -2.0437e-04 -1.1758e-04  4.1349e-05 -2.4909e-01
   1.1873e-05  3.4801e-04 -2.2547e-04 -4.2344e-05 -1.1897e-03 -8.1949e-03
  -9.0320e-03]
 [-4.8918e-04 -1.0392e-03 -6.4206e-05 -5.8072e-06 -7.7652e-05 -1.2007e-05
   3.2973e-07 -7.4570e-03 -2.0500e-02 -4.7372e-05  9.5358e-05  2.1507e-03
   1.4523e-05  9.0965e-04 -1.0760e-03  4.3038e-04 -1.7320e-02 -6.9044e-01
   8.5481e-02]
 [ 9.4632e-04 -1.9971e-04 -1.0584e-04  5.5127e-06  2.3296e-05 -2.0595e-05
  -8.3612e-05  1.9489e-02 -7.6933e-03 -1.2871e-04  6.9897e-05  1.6808e-03
  -2.0292e-04 -9.8140e-04 -1.2869e-03  3.0247e-04 -1.4484e-02 -7.0540e-02
  -7.9978e-01]
 [-8.9937e-06  2.0029e-06  1.1631e-05  2.5420e-05  1.2970e-05 -2.0523e-02
  -8.2120e-03 -3.5184e-05 -8.8704e-05 -7.1664e-02 -7.1453e-03  3.2508e-04
   1.9967e-03 -1.9895e-01 -9.0780e-01  3.6051e-04  1.0152e-03  1.3810e-03
   2.1495e-03]
 [ 2.5548e-05  4.3983e-06 -1.4722e-05  7.0620e-05 -2.0224e-05 -8.1585e-03
   2.0527e-02  2.1248e-04 -2.6349e-05 -7.3558e-03  7.1512e-02 -5.6647e-05
   1.3663e-03  9.0817e-01 -1.9950e-01 -1.6417e-03 -1.0139e-03  6.0407e-04
  -1.7185e-04]
 [ 9.4542e-06  3.1104e-06 -3.2831e-05  5.5414e-03  5.6592e-06  1.0589e-04
   5.9077e-05  8.3741e-05 -1.0763e-04  5.2642e-05 -2.5925e-04 -9.2302e-05
   7.3897e-01 -1.7226e-03  1.7348e-03 -5.6137e-01  3.5900e-04 -3.6710e-04
  -3.3325e-04]
 [ 2.1451e-05  7.4604e-05 -5.0144e-05 -7.5610e-05  1.7045e-05  1.9803e-01
  -5.2373e-03 -9.4711e-06  1.9494e-04 -9.2099e-01  2.8943e-01 -8.6642e-04
  -4.7695e-05 -1.3427e-02  7.0951e-02 -7.5261e-05  2.0321e-04 -7.9413e-05
  -1.5712e-05]
 [ 8.2883e-05  7.0643e-06 -9.3842e-06 -2.4792e-06 -1.5608e-04 -5.3606e-03
  -1.9731e-01  1.1232e-04  3.1166e-05  2.8941e-01  9.2117e-01 -7.4176e-04
   1.4180e-04 -7.0775e-02 -1.3717e-02  2.1181e-05 -3.2657e-04  2.8207e-04
   5.4905e-06]
 [-2.4041e-04  1.4891e-04  5.7644e-02 -6.7456e-06 -5.1411e-06  2.1320e-04
  -1.5293e-04  5.0608e-04  7.3111e-04 -6.1685e-04  1.0024e-03  9.3698e-01
   4.0021e-05  1.5693e-04  3.3832e-04 -1.0653e-04 -2.0437e-04 -2.9236e-04
  -9.7637e-04]
 [-3.1622e-02 -2.2514e-03 -9.2778e-05 -1.1775e-04  9.8425e-05  1.4126e-04
  -2.3097e-05  9.7247e-01  2.4947e-02 -1.5045e-05 -1.2900e-04 -4.8759e-04
  -9.6162e-05 -1.6832e-04 -5.4397e-05 -4.5684e-06  8.6992e-04 -5.2512e-04
   1.4439e-02]
 [ 2.0982e-03 -2.9897e-02  2.4035e-05 -1.3962e-04  1.0250e-04  8.5068e-05
   2.0014e-05 -2.4987e-02  9.7294e-01  1.9148e-04 -7.9323e-05 -6.6689e-04
   3.5563e-05  4.9127e-05 -1.0356e-04 -7.0364e-05 -6.3731e-04 -2.5537e-03
  -3.9774e-03]
 [ 1.3277e-04 -2.3821e-04  5.9036e-04 -7.7179e-01  8.7494e-05 -3.7859e-04
  -1.4159e-05 -1.3983e-04 -1.9719e-04 -2.3155e-05  4.3409e-05 -1.1427e-04
  -2.9592e-01 -3.6581e-04 -7.4908e-04 -3.1160e-01  2.4618e-04 -9.2109e-05
   6.3880e-05]
 [ 2.3391e-03 -4.2664e-04  1.3294e-05  1.3221e-04  9.5822e-01  3.8505e-06
  -2.1331e-04  1.7203e-04 -1.9014e-04  5.9716e-05  9.8462e-05  4.8904e-06
  -3.8080e-05 -7.0340e-05 -1.2931e-04 -2.8968e-05 -1.5398e-04 -3.4046e-04
   9.4618e-05]]
|P_imp-P_imp_0| =  0.007359422869347443
max(P_imp-P_imp_0) =  0.0003231366902108762
|P_bath-P_bath_0| =  0.008934171684052625
max(P_bath-P_bath_0) =  0.0006027530259093763

At iterate   54    f=   1.202983519233E-03    |proj g|=  1.932271849E-03

At iterate   55    f=   1.202735972743E-03    |proj g|=  1.616063759E-03

At iterate   56    f=   1.202394299727E-03    |proj g|=  2.214730842E-03

At iterate   57    f=   1.201909468313E-03    |proj g|=  3.470524462E-03

At iterate   58    f=   1.201614226550E-03    |proj g|=  3.151750922E-03

At iterate   59    f=   1.201183450682E-03    |proj g|=  1.706533514E-03

At iterate   60    f=   1.200950783650E-03    |proj g|=  1.921301567E-03

At iterate   61    f=   1.200827575821E-03    |proj g|=  2.861918954E-03

At iterate   62    f=   1.200722565774E-03    |proj g|=  2.835799599E-03

At iterate   63    f=   1.200451067957E-03    |proj g|=  2.830631822E-03

At iterate   64    f=   1.200199456718E-03    |proj g|=  1.519229446E-03

At iterate   65    f=   1.200050336725E-03    |proj g|=  9.029383865E-04

At iterate   66    f=   1.199926747170E-03    |proj g|=  1.428324042E-03

At iterate   67    f=   1.199741168094E-03    |proj g|=  1.658599963E-03

At iterate   68    f=   1.199498416809E-03    |proj g|=  1.957878968E-03

At iterate   69    f=   1.199233705511E-03    |proj g|=  1.155815702E-03

At iterate   70    f=   1.198959547713E-03    |proj g|=  2.594610042E-03

At iterate   71    f=   1.198695910969E-03    |proj g|=  2.148433139E-03

At iterate   72    f=   1.198447487375E-03    |proj g|=  1.515050052E-03

At iterate   73    f=   1.198046916680E-03    |proj g|=  1.931773786E-03

At iterate   74    f=   1.197843561848E-03    |proj g|=  2.072264508E-03

At iterate   75    f=   1.197319744519E-03    |proj g|=  2.068235874E-03

At iterate   76    f=   1.197014115821E-03    |proj g|=  3.156496221E-03

At iterate   77    f=   1.196640503165E-03    |proj g|=  1.759238948E-03

At iterate   78    f=   1.196397724897E-03    |proj g|=  2.233075820E-03

At iterate   79    f=   1.196129061662E-03    |proj g|=  1.477601549E-03

At iterate   80    f=   1.195800688612E-03    |proj g|=  1.490931737E-03

At iterate   81    f=   1.195395448021E-03    |proj g|=  1.815075996E-03

At iterate   82    f=   1.195051848470E-03    |proj g|=  1.896634316E-03

At iterate   83    f=   1.194677806920E-03    |proj g|=  1.899117493E-03

At iterate   84    f=   1.194159674782E-03    |proj g|=  2.306818950E-03

At iterate   85    f=   1.193768037345E-03    |proj g|=  2.466446841E-03

At iterate   86    f=   1.193356913536E-03    |proj g|=  1.822964368E-03

At iterate   87    f=   1.192845163143E-03    |proj g|=  2.627799201E-03

At iterate   88    f=   1.192569706184E-03    |proj g|=  2.791029134E-03

At iterate   89    f=   1.192335582617E-03    |proj g|=  3.055002040E-03

At iterate   90    f=   1.192056821607E-03    |proj g|=  2.393173010E-03

At iterate   91    f=   1.192028284868E-03    |proj g|=  2.909848443E-03

At iterate   92    f=   1.191910303404E-03    |proj g|=  2.290542456E-03

At iterate   93    f=   1.191906095827E-03    |proj g|=  2.315674839E-03

At iterate   94    f=   1.191880069490E-03    |proj g|=  1.989251090E-03

At iterate   95    f=   1.191855795990E-03    |proj g|=  2.473808856E-03

At iterate   96    f=   1.191844185656E-03    |proj g|=  1.764576659E-03

At iterate   97    f=   1.191844185656E-03    |proj g|=  1.764576660E-03

           * * *

Tit   = total number of iterations
Tnf   = total number of function evaluations
Tnint = total number of segments explored during Cauchy searches
Skip  = number of BFGS updates skipped
Nact  = number of active bounds at final generalized Cauchy point
Projg = norm of the final projected gradient
F     = final function value

           * * *

   N    Tit     Tnf  Tnint  Skip  Nact     Projg        F
 4656     97    131      1     0     0   1.765D-03   1.192D-03
  F =   1.1918441856558432E-003

CONVERGENCE: REL_REDUCTION_OF_F_<=_FACTR*EPSMCH             

 Cauchy                time 0.000E+00 seconds.
 Subspace minimization time 0.000E+00 seconds.
 Line search           time 0.000E+00 seconds.

 Total User time 0.000E+00 seconds.

