#INFO: **** input file is /tigress/xingz/pydmfet/examples/research/Al12/dmfet/least/Al12.py ****
from pydmfet import locints, sdmfet, oep, tools, dfet_ao, proj_ao
from pydmfet.dfet_ao import dfet
from pydmfet.qcwrap.pyscf_rks_ao import rks_ao
from pyscf import gto, scf,dft, ao2mo,cc
import numpy as np
from pyscf.tools import molden, cubegen
import copy,time
from pydmfet.tools.sym import h_lattice_sym_tab

bas = 'stuttgartdz'
ecp = 'stuttgartdz'
temp = 0.005


mol = gto.Mole()
mol.atom = open('Al12.xyz').read()
mol.basis = bas
mol.ecp = ecp
mol.build(max_memory = 4000, verbose=4)

mf = rks_ao(mol,smear_sigma = temp)
mf.xc = 'pbe,pbe'
mf.max_cycle = 50
mf.scf(dm0=None)

natoms = mol.natm
impAtom = np.zeros([natoms], dtype=int)
for i in range(6):
    impAtom[i] = 1

ghost_frag = 1-impAtom
ghost_env = 1-ghost_frag

mol_frag = gto.Mole()
mol_frag.atom = tools.add_ghost(mol.atom, ghost_frag)
mol_frag.basis = bas
mol_frag.ecp = ecp
mol_frag.build(max_memory = 4000,verbose = 4)

mol_env = gto.Mole()
mol_env.atom = tools.add_ghost(mol.atom, ghost_env)
mol_env.basis =  bas
mol_env.ecp = ecp
mol_env.build(max_memory = 4000,verbose = 4)

Ne_frag = 18
Ne_env = 18

boundary_atoms = None
boundary_atoms2 =None

umat = None
umat = np.load("umat.npy")

params = oep.OEPparams(algorithm = 'leastsq', opt_method = 'L-BFGS-B', diffP_tol=1e-3, outer_maxit = 10)
params.options['ftol'] = 1e-10
params.options['gtol'] = 1e-4
params.options['maxiter'] = 100
params.options['svd_thresh'] = 1e-5

theDMFET = dfet.DFET(mf, mol_frag, mol_env,Ne_frag,Ne_env,\
                     boundary_atoms=boundary_atoms, boundary_atoms2=boundary_atoms2,umat = umat,\
                     oep_params=params, smear_sigma=temp, ecw_method = 'hf',mf_method = mf.xc, plot_dens=True)

umat = theDMFET.embedding_potential()
#INFO: ******************** input file end ********************


System: uname_result(system='Linux', node='tiger-h19c1n2', release='3.10.0-957.27.2.el7.x86_64', version='#1 SMP Tue Jul 30 11:12:20 EDT 2019', machine='x86_64', processor='x86_64')  Threads 40
Python 3.7.0 (default, Jun 28 2018, 13:15:42) 
[GCC 7.2.0]
numpy 1.16.4  scipy 1.4.0.dev0+0f78e0f
Date: Wed Aug 21 22:13:55 2019
PySCF version 1.5
PySCF path  /home/xingz/.local/lib/python3.7/site-packages/pyscf

[CONFIG] conf_file None
[INPUT] verbose = 4
[INPUT] num. atoms = 12
[INPUT] num. electrons = 36
[INPUT] charge = 0
[INPUT] spin (= nelec alpha-beta = 2S) = 0
[INPUT] symmetry False subgroup None
[INPUT] Mole.unit = angstrom
[INPUT]  1 Al     8.092960000000   4.046480000000  -0.000000000000 AA   15.293477937060   7.646738968530  -0.000000000000 Bohr
[INPUT]  2 Al     8.092960000000   6.069720000000  -2.023240000000 AA   15.293477937060  11.470108452795  -3.823369484265 Bohr
[INPUT]  3 Al    10.116200000000   4.046480000000  -2.023240000000 AA   19.116847421325   7.646738968530  -3.823369484265 Bohr
[INPUT]  4 Al     6.069720000000   4.046480000000  -2.023240000000 AA   11.470108452795   7.646738968530  -3.823369484265 Bohr
[INPUT]  5 Al     8.092960000000   2.023240000000  -2.023240000000 AA   15.293477937060   3.823369484265  -3.823369484265 Bohr
[INPUT]  6 Al     8.092960000000   4.046480000000  -4.046480000000 AA   15.293477937060   7.646738968530  -7.646738968530 Bohr
[INPUT]  7 Al     6.069720000000   6.069720000000  -0.000000000000 AA   11.470108452795  11.470108452795  -0.000000000000 Bohr
[INPUT]  8 Al    10.116200000000   2.023240000000  -0.000000000000 AA   19.116847421325   3.823369484265  -0.000000000000 Bohr
[INPUT]  9 Al    10.116200000000   6.069720000000  -4.046480000000 AA   19.116847421325  11.470108452795  -7.646738968530 Bohr
[INPUT] 10 Al     6.069720000000   2.023240000000  -0.000000000000 AA   11.470108452795   3.823369484265  -0.000000000000 Bohr
[INPUT] 11 Al     6.069720000000   6.069720000000  -4.046480000000 AA   11.470108452795  11.470108452795  -7.646738968530 Bohr
[INPUT] 12 Al    10.116200000000   2.023240000000  -4.046480000000 AA   19.116847421325   3.823369484265  -7.646738968530 Bohr

nuclear repulsion = 84.8573926838199
number of shells = 48
number of NR pGTOs = 192
number of NR cGTOs = 96
basis = stuttgartdz
ecp = stuttgartdz
CPU time:         4.69
rks_ao.ne_frozen =  0


******** <class 'pydmfet.qcwrap.pyscf_rks_ao.rks_ao'> flags ********
method = rks_ao-RKS-RHF
initial guess = minao
damping factor = 0
level shift factor = 0
DIIS = <class 'pyscf.scf.diis.CDIIS'>
DIIS start cycle = 1
DIIS space = 8
SCF tol = 1e-09
SCF gradient tol = None
max. SCF cycles = 50
direct_scf = False
chkfile to save SCF result = /tmp/tmp0jh781br
max_memory 4000 MB (current use 74 MB)
XC functionals = pbe,pbe
small_rho_cutoff = 1e-07
radial grids: 
    Treutler-Ahlrichs (JCP 102, 346 (M4)) radial grids
    
becke partition: Becke, JCP, 88, 2547 (1988)
pruning grids: <function nwchem_prune at 0x2b8ce932a400>
grids dens level: 3
symmetrized grids: False
atomic radii adjust function: <function treutler_atomic_radii_adjust at 0x2b8ce932a378>
Set gradient conv threshold to 3.16228e-05
tot grids = 220800
init E= -21.344783658299
HOMO:  -0.09640875247665495 LUMO:  -0.08910626015728056
Fermi energy:      -0.0887572500
[2.     2.     2.     2.     2.     2.     2.     2.     2.     2.
 2.     2.     1.9995 1.9096 1.7557 1.7557 1.6441 1.6441 1.0349 0.2163
 0.02   0.02  ]
entropy correction =  -0.030126401120555108
cycle= 1 E= -24.0317931623432  delta_E= -2.69  |g|= 0.653  |ddm|= 6.67
HOMO:  -0.23116268121406433 LUMO:  -0.23116268121406325
Fermi energy:      -0.2358858179
[2.     2.     2.     2.     2.     2.     2.     2.     2.     2.
 2.     2.     2.     1.9989 1.9981 1.9981 1.9963 0.5599 0.5599 0.4393
 0.4393 0.0101]
entropy correction =  -0.023039333382987977
cycle= 2 E= -22.7589412389298  delta_E= 1.27  |g|= 1.61  |ddm|= 4.31
HOMO:  -0.1864794289436309 LUMO:  -0.17551521715008642
Fermi energy:      -0.1766937420
[2.     2.     2.     2.     2.     2.     2.     2.     2.     2.
 2.     2.     1.9995 1.9702 1.7766 1.7766 1.7524 1.7524 0.8827 0.0807
 0.0044 0.0044]
entropy correction =  -0.024152976140203314
cycle= 3 E= -24.1577819139598  delta_E= -1.4  |g|= 0.177  |ddm|= 3.48
HOMO:  -0.16723309364643152 LUMO:  -0.1666821958428708
Fermi energy:      -0.1626445453
[2.     2.     2.     2.     2.     2.     2.     2.     2.     2.
 2.     2.     1.9999 1.922  1.8341 1.8341 1.4292 1.4292 1.3832 0.1196
 0.0244 0.0244]
entropy correction =  -0.029092388982086433
cycle= 4 E= -24.1758252803636  delta_E= -0.018  |g|= 0.0887  |ddm|= 0.83
HOMO:  -0.1691327019218598 LUMO:  -0.16476599946425993
Fermi energy:      -0.1627185946
[2.     2.     2.     2.     2.     2.     2.     2.     2.     2.
 2.     2.     1.9998 1.9364 1.7964 1.7964 1.5659 1.5659 1.2019 0.1144
 0.0115 0.0115]
entropy correction =  -0.0280869766164889
cycle= 5 E= -24.1831548018884  delta_E= -0.00733  |g|= 0.00917  |ddm|= 0.293
HOMO:  -0.17049749264548628 LUMO:  -0.16611814497689142
Fermi energy:      -0.1641279001
[2.     2.     2.     2.     2.     2.     2.     2.     2.     2.
 2.     2.     1.9999 1.9389 1.802  1.802  1.5628 1.5628 1.1964 0.1103
 0.0124 0.0124]
entropy correction =  -0.02795963123735501
cycle= 6 E= -24.1832343076202  delta_E= -7.95e-05  |g|= 0.00113  |ddm|= 0.0422
HOMO:  -0.17058528293725223 LUMO:  -0.16630331880958119
Fermi energy:      -0.1642599608
[2.     2.     2.     2.     2.     2.     2.     2.     2.     2.
 2.     2.     1.9999 1.9387 1.8025 1.8025 1.5598 1.5598 1.2015 0.1105
 0.0124 0.0124]
entropy correction =  -0.02798323806982264
cycle= 7 E= -24.1832355424439  delta_E= -1.23e-06  |g|= 0.000895  |ddm|= 0.00747
HOMO:  -0.17054731833010417 LUMO:  -0.16621690815491605
Fermi energy:      -0.1641961314
[2.     2.     2.     2.     2.     2.     2.     2.     2.     2.
 2.     2.     1.9999 1.9385 1.8018 1.8018 1.5616 1.5616 1.1994 0.1109
 0.0124 0.0124]
entropy correction =  -0.02798901659182557
cycle= 8 E= -24.1832361917857  delta_E= -6.49e-07  |g|= 7.71e-05  |ddm|= 0.00356
HOMO:  -0.17053508515489926 LUMO:  -0.1662114728203224
Fermi energy:      -0.1641878969
[2.     2.     2.     2.     2.     2.     2.     2.     2.     2.
 2.     2.     1.9999 1.9385 1.8019 1.8019 1.5613 1.5613 1.1996 0.1108
 0.0124 0.0124]
entropy correction =  -0.027988384491849684
cycle= 9 E= -24.1832362012562  delta_E= -9.47e-09  |g|= 2.11e-05  |ddm|= 0.000544
HOMO:  -0.17053203701126857 LUMO:  -0.16620777273045084
Fermi energy:      -0.1641845192
[2.     2.     2.     2.     2.     2.     2.     2.     2.     2.
 2.     2.     1.9999 1.9385 1.8019 1.8019 1.5613 1.5613 1.1996 0.1108
 0.0124 0.0124]
entropy correction =  -0.0279881087127814
cycle= 10 E= -24.183236201552  delta_E= -2.96e-10  |g|= 3.03e-06  |ddm|= 6.6e-05
HOMO:  -0.17053311708733965 LUMO:  -0.166208850012502
Fermi energy:      -0.1641855888
[2.     2.     2.     2.     2.     2.     2.     2.     2.     2.
 2.     2.     1.9999 1.9385 1.8019 1.8019 1.5613 1.5613 1.1996 0.1108
 0.0124 0.0124]
entropy correction =  -0.02798811884046302
Extra cycle  E= -24.1832362015497  delta_E= 2.36e-12  |g|= 3.71e-06  |ddm|= 1.75e-05
converged SCF energy = -24.1832362015497
#INFO: **** input file is /tigress/xingz/pydmfet/examples/research/Al12/dmfet/least/Al12.py ****
from pydmfet import locints, sdmfet, oep, tools, dfet_ao, proj_ao
from pydmfet.dfet_ao import dfet
from pydmfet.qcwrap.pyscf_rks_ao import rks_ao
from pyscf import gto, scf,dft, ao2mo,cc
import numpy as np
from pyscf.tools import molden, cubegen
import copy,time
from pydmfet.tools.sym import h_lattice_sym_tab

bas = 'stuttgartdz'
ecp = 'stuttgartdz'
temp = 0.005


mol = gto.Mole()
mol.atom = open('Al12.xyz').read()
mol.basis = bas
mol.ecp = ecp
mol.build(max_memory = 4000, verbose=4)

mf = rks_ao(mol,smear_sigma = temp)
mf.xc = 'pbe,pbe'
mf.max_cycle = 50
mf.scf(dm0=None)

natoms = mol.natm
impAtom = np.zeros([natoms], dtype=int)
for i in range(6):
    impAtom[i] = 1

ghost_frag = 1-impAtom
ghost_env = 1-ghost_frag

mol_frag = gto.Mole()
mol_frag.atom = tools.add_ghost(mol.atom, ghost_frag)
mol_frag.basis = bas
mol_frag.ecp = ecp
mol_frag.build(max_memory = 4000,verbose = 4)

mol_env = gto.Mole()
mol_env.atom = tools.add_ghost(mol.atom, ghost_env)
mol_env.basis =  bas
mol_env.ecp = ecp
mol_env.build(max_memory = 4000,verbose = 4)

Ne_frag = 18
Ne_env = 18

boundary_atoms = None
boundary_atoms2 =None

umat = None
umat = np.load("umat.npy")

params = oep.OEPparams(algorithm = 'leastsq', opt_method = 'L-BFGS-B', diffP_tol=1e-3, outer_maxit = 10)
params.options['ftol'] = 1e-10
params.options['gtol'] = 1e-4
params.options['maxiter'] = 100
params.options['svd_thresh'] = 1e-5

theDMFET = dfet.DFET(mf, mol_frag, mol_env,Ne_frag,Ne_env,\
                     boundary_atoms=boundary_atoms, boundary_atoms2=boundary_atoms2,umat = umat,\
                     oep_params=params, smear_sigma=temp, ecw_method = 'hf',mf_method = mf.xc, plot_dens=True)

umat = theDMFET.embedding_potential()
#INFO: ******************** input file end ********************


System: uname_result(system='Linux', node='tiger-h19c1n2', release='3.10.0-957.27.2.el7.x86_64', version='#1 SMP Tue Jul 30 11:12:20 EDT 2019', machine='x86_64', processor='x86_64')  Threads 40
Python 3.7.0 (default, Jun 28 2018, 13:15:42) 
[GCC 7.2.0]
numpy 1.16.4  scipy 1.4.0.dev0+0f78e0f
Date: Wed Aug 21 22:14:08 2019
PySCF version 1.5
PySCF path  /home/xingz/.local/lib/python3.7/site-packages/pyscf

[CONFIG] conf_file None
[INPUT] verbose = 4
[INPUT] num. atoms = 12
[INPUT] num. electrons = 18
[INPUT] charge = 0
[INPUT] spin (= nelec alpha-beta = 2S) = 0
[INPUT] symmetry False subgroup None
[INPUT] Mole.unit = angstrom
[INPUT]  1 Al     8.092960000000   4.046480000000  -0.000000000000 AA   15.293477937060   7.646738968530  -0.000000000000 Bohr
[INPUT]  2 Al     8.092960000000   6.069720000000  -2.023240000000 AA   15.293477937060  11.470108452795  -3.823369484265 Bohr
[INPUT]  3 Al    10.116200000000   4.046480000000  -2.023240000000 AA   19.116847421325   7.646738968530  -3.823369484265 Bohr
[INPUT]  4 Al     6.069720000000   4.046480000000  -2.023240000000 AA   11.470108452795   7.646738968530  -3.823369484265 Bohr
[INPUT]  5 Al     8.092960000000   2.023240000000  -2.023240000000 AA   15.293477937060   3.823369484265  -3.823369484265 Bohr
[INPUT]  6 Al     8.092960000000   4.046480000000  -4.046480000000 AA   15.293477937060   7.646738968530  -7.646738968530 Bohr
[INPUT]  7 GHOST-Al   6.069720000000   6.069720000000  -0.000000000000 AA   11.470108452795  11.470108452795  -0.000000000000 Bohr
[INPUT]  8 GHOST-Al  10.116200000000   2.023240000000  -0.000000000000 AA   19.116847421325   3.823369484265  -0.000000000000 Bohr
[INPUT]  9 GHOST-Al  10.116200000000   6.069720000000  -4.046480000000 AA   19.116847421325  11.470108452795  -7.646738968530 Bohr
[INPUT] 10 GHOST-Al   6.069720000000   2.023240000000  -0.000000000000 AA   11.470108452795   3.823369484265  -0.000000000000 Bohr
[INPUT] 11 GHOST-Al   6.069720000000   6.069720000000  -4.046480000000 AA   11.470108452795  11.470108452795  -7.646738968530 Bohr
[INPUT] 12 GHOST-Al  10.116200000000   2.023240000000  -4.046480000000 AA   19.116847421325   3.823369484265  -7.646738968530 Bohr

nuclear repulsion = 23.5047992975816
number of shells = 48
number of NR pGTOs = 192
number of NR cGTOs = 96
basis = stuttgartdz
ecp = stuttgartdz
CPU time:       314.15
#INFO: **** input file is /tigress/xingz/pydmfet/examples/research/Al12/dmfet/least/Al12.py ****
from pydmfet import locints, sdmfet, oep, tools, dfet_ao, proj_ao
from pydmfet.dfet_ao import dfet
from pydmfet.qcwrap.pyscf_rks_ao import rks_ao
from pyscf import gto, scf,dft, ao2mo,cc
import numpy as np
from pyscf.tools import molden, cubegen
import copy,time
from pydmfet.tools.sym import h_lattice_sym_tab

bas = 'stuttgartdz'
ecp = 'stuttgartdz'
temp = 0.005


mol = gto.Mole()
mol.atom = open('Al12.xyz').read()
mol.basis = bas
mol.ecp = ecp
mol.build(max_memory = 4000, verbose=4)

mf = rks_ao(mol,smear_sigma = temp)
mf.xc = 'pbe,pbe'
mf.max_cycle = 50
mf.scf(dm0=None)

natoms = mol.natm
impAtom = np.zeros([natoms], dtype=int)
for i in range(6):
    impAtom[i] = 1

ghost_frag = 1-impAtom
ghost_env = 1-ghost_frag

mol_frag = gto.Mole()
mol_frag.atom = tools.add_ghost(mol.atom, ghost_frag)
mol_frag.basis = bas
mol_frag.ecp = ecp
mol_frag.build(max_memory = 4000,verbose = 4)

mol_env = gto.Mole()
mol_env.atom = tools.add_ghost(mol.atom, ghost_env)
mol_env.basis =  bas
mol_env.ecp = ecp
mol_env.build(max_memory = 4000,verbose = 4)

Ne_frag = 18
Ne_env = 18

boundary_atoms = None
boundary_atoms2 =None

umat = None
umat = np.load("umat.npy")

params = oep.OEPparams(algorithm = 'leastsq', opt_method = 'L-BFGS-B', diffP_tol=1e-3, outer_maxit = 10)
params.options['ftol'] = 1e-10
params.options['gtol'] = 1e-4
params.options['maxiter'] = 100
params.options['svd_thresh'] = 1e-5

theDMFET = dfet.DFET(mf, mol_frag, mol_env,Ne_frag,Ne_env,\
                     boundary_atoms=boundary_atoms, boundary_atoms2=boundary_atoms2,umat = umat,\
                     oep_params=params, smear_sigma=temp, ecw_method = 'hf',mf_method = mf.xc, plot_dens=True)

umat = theDMFET.embedding_potential()
#INFO: ******************** input file end ********************


System: uname_result(system='Linux', node='tiger-h19c1n2', release='3.10.0-957.27.2.el7.x86_64', version='#1 SMP Tue Jul 30 11:12:20 EDT 2019', machine='x86_64', processor='x86_64')  Threads 40
Python 3.7.0 (default, Jun 28 2018, 13:15:42) 
[GCC 7.2.0]
numpy 1.16.4  scipy 1.4.0.dev0+0f78e0f
Date: Wed Aug 21 22:14:08 2019
PySCF version 1.5
PySCF path  /home/xingz/.local/lib/python3.7/site-packages/pyscf

[CONFIG] conf_file None
[INPUT] verbose = 4
[INPUT] num. atoms = 12
[INPUT] num. electrons = 18
[INPUT] charge = 0
[INPUT] spin (= nelec alpha-beta = 2S) = 0
[INPUT] symmetry False subgroup None
[INPUT] Mole.unit = angstrom
[INPUT]  1 GHOST-Al   8.092960000000   4.046480000000  -0.000000000000 AA   15.293477937060   7.646738968530  -0.000000000000 Bohr
[INPUT]  2 GHOST-Al   8.092960000000   6.069720000000  -2.023240000000 AA   15.293477937060  11.470108452795  -3.823369484265 Bohr
[INPUT]  3 GHOST-Al  10.116200000000   4.046480000000  -2.023240000000 AA   19.116847421325   7.646738968530  -3.823369484265 Bohr
[INPUT]  4 GHOST-Al   6.069720000000   4.046480000000  -2.023240000000 AA   11.470108452795   7.646738968530  -3.823369484265 Bohr
[INPUT]  5 GHOST-Al   8.092960000000   2.023240000000  -2.023240000000 AA   15.293477937060   3.823369484265  -3.823369484265 Bohr
[INPUT]  6 GHOST-Al   8.092960000000   4.046480000000  -4.046480000000 AA   15.293477937060   7.646738968530  -7.646738968530 Bohr
[INPUT]  7 Al     6.069720000000   6.069720000000  -0.000000000000 AA   11.470108452795  11.470108452795  -0.000000000000 Bohr
[INPUT]  8 Al    10.116200000000   2.023240000000  -0.000000000000 AA   19.116847421325   3.823369484265  -0.000000000000 Bohr
[INPUT]  9 Al    10.116200000000   6.069720000000  -4.046480000000 AA   19.116847421325  11.470108452795  -7.646738968530 Bohr
[INPUT] 10 Al     6.069720000000   2.023240000000  -0.000000000000 AA   11.470108452795   3.823369484265  -0.000000000000 Bohr
[INPUT] 11 Al     6.069720000000   6.069720000000  -4.046480000000 AA   11.470108452795  11.470108452795  -7.646738968530 Bohr
[INPUT] 12 Al    10.116200000000   2.023240000000  -4.046480000000 AA   19.116847421325   3.823369484265  -7.646738968530 Bohr

nuclear repulsion = 14.0938802665721
number of shells = 48
number of NR pGTOs = 192
number of NR cGTOs = 96
basis = stuttgartdz
ecp = stuttgartdz
CPU time:       314.55


******** <class 'pydmfet.dfet_ao.scf.EmbedSCF'> flags ********
method = EmbedSCF-RKS-RHF
initial guess = minao
damping factor = 0
level shift factor = 0
DIIS = <class 'pyscf.scf.diis.CDIIS'>
DIIS start cycle = 1
DIIS space = 8
SCF tol = 1e-09
SCF gradient tol = None
max. SCF cycles = 50
direct_scf = False
chkfile to save SCF result = /tmp/tmp9mhbpozc
max_memory 4000 MB (current use 553 MB)
XC functionals = pbe,pbe
small_rho_cutoff = 1e-07
radial grids: 
    Treutler-Ahlrichs (JCP 102, 346 (M4)) radial grids
    
becke partition: Becke, JCP, 88, 2547 (1988)
pruning grids: <function nwchem_prune at 0x2b8ce932a400>
grids dens level: 3
symmetrized grids: False
atomic radii adjust function: <function treutler_atomic_radii_adjust at 0x2b8ce932a378>
Set gradient conv threshold to 3.16228e-05
tot grids = 190200
init E= -9.26857613406101
HOMO: -0.2420616052609191 LUMO: -0.238651535020456
mo_energy:
[-0.3678 -0.2682 -0.2663 -0.2663 -0.2598 -0.2596 -0.2586 -0.2421 -0.2421
 -0.2387 -0.2381 -0.231  -0.2303 -0.2171]
e_fermi =  -0.24096355738318398
[2.    1.991 1.987 1.987 1.955 1.953 1.943 1.111 1.109 0.773 0.719 0.241
 0.213 0.017]
entropy correction =  -0.039043366108583576
cycle= 1 E= -12.912451385971  delta_E= -3.64  |g|= 0.864  |ddm|= 4.92
HOMO: -0.4977028249139479 LUMO: -0.4482177677162142
mo_energy:
[-0.871 -0.676 -0.619 -0.619 -0.539 -0.53  -0.529 -0.498 -0.498 -0.448
 -0.443 -0.443 -0.431 -0.426]
e_fermi =  -0.4727377278094193
[2.    2.    2.    2.    2.    2.    2.    1.987 1.987 0.015 0.006 0.005]
entropy correction =  -0.0016456075760407957
cycle= 2 E= -12.8230355962694  delta_E= 0.0894  |g|= 1.09  |ddm|= 3.43
HOMO: -0.38356357189345575 LUMO: -0.37189591088862745
mo_energy:
[-0.589 -0.444 -0.418 -0.417 -0.409 -0.403 -0.403 -0.384 -0.384 -0.372
 -0.372 -0.372 -0.363 -0.334]
e_fermi =  -0.379094457024806
[2.    2.    1.999 1.999 1.995 1.984 1.984 1.424 1.419 0.383 0.38  0.36
 0.073]
entropy correction =  -0.029268109197333574
cycle= 3 E= -13.3591693112128  delta_E= -0.536  |g|= 0.231  |ddm|= 1.81
HOMO: -0.37064136867752423 LUMO: -0.3704436500814916
mo_energy:
[-0.555 -0.405 -0.4   -0.4   -0.391 -0.39  -0.386 -0.371 -0.371 -0.37
 -0.366 -0.366 -0.357 -0.326]
e_fermi =  -0.370770858205656
[2.    1.998 1.994 1.994 1.966 1.959 1.901 1.051 0.987 0.967 0.534 0.523
 0.126]
entropy correction =  -0.03902192711688401
cycle= 4 E= -13.3898774990813  delta_E= -0.0307  |g|= 0.116  |ddm|= 0.828
HOMO: -0.36813896910469823 LUMO: -0.36545181170892016
mo_energy:
[-0.551 -0.406 -0.397 -0.395 -0.388 -0.387 -0.384 -0.368 -0.368 -0.365
 -0.363 -0.362 -0.353 -0.322]
e_fermi =  -0.36750940266425614
[2.    1.999 1.994 1.991 1.969 1.962 1.933 1.065 1.063 0.797 0.603 0.521
 0.101]
entropy correction =  -0.03813257633751174
cycle= 5 E= -13.325794030905  delta_E= 0.0641  |g|= 0.33  |ddm|= 0.65
HOMO: -0.3661667436713604 LUMO: -0.3656209553772664
mo_energy:
[-0.55  -0.406 -0.393 -0.391 -0.388 -0.386 -0.385 -0.367 -0.366 -0.366
 -0.363 -0.362 -0.352 -0.321]
e_fermi =  -0.36658538315958
[2.    1.999 1.991 1.986 1.971 1.962 1.949 1.007 0.958 0.904 0.613 0.56
 0.101]
entropy correction =  -0.03848753915891108
cycle= 6 E= -13.3996896132414  delta_E= -0.0739  |g|= 0.0505  |ddm|= 0.502
HOMO: -0.36687507231831734 LUMO: -0.3660342955481269
mo_energy:
[-0.55  -0.407 -0.393 -0.393 -0.388 -0.386 -0.385 -0.368 -0.367 -0.366
 -0.362 -0.362 -0.352 -0.322]
e_fermi =  -0.3670721187228067
[2.    1.999 1.99  1.988 1.972 1.956 1.947 1.063 0.98  0.897 0.564 0.55
 0.094]
entropy correction =  -0.03819926829416871
cycle= 7 E= -13.3974474156977  delta_E= 0.00224  |g|= 0.0721  |ddm|= 0.286
HOMO: -0.3683241351011622 LUMO: -0.36615057458621897
mo_energy:
[-0.55  -0.406 -0.394 -0.394 -0.388 -0.387 -0.385 -0.368 -0.368 -0.366
 -0.363 -0.363 -0.353 -0.323]
e_fermi =  -0.367793527436762
[2.    1.999 1.99  1.989 1.964 1.958 1.942 1.069 1.053 0.837 0.559 0.549
 0.09 ]
entropy correction =  -0.03819803683516968
cycle= 8 E= -13.3998103354736  delta_E= -0.00236  |g|= 0.0565  |ddm|= 0.193
HOMO: -0.3681646729551396 LUMO: -0.36599094924454195
mo_energy:
[-0.55  -0.406 -0.394 -0.393 -0.387 -0.387 -0.385 -0.368 -0.368 -0.366
 -0.363 -0.363 -0.352 -0.322]
e_fermi =  -0.36769190166941423
[2.    1.999 1.99  1.988 1.962 1.961 1.941 1.06  1.047 0.832 0.566 0.563
 0.091]
entropy correction =  -0.03834620671488859
cycle= 9 E= -13.4018430559943  delta_E= -0.00203  |g|= 0.0191  |ddm|= 0.111
HOMO: -0.36684177531852735 LUMO: -0.3652967293377666
mo_energy:
[-0.548 -0.404 -0.392 -0.392 -0.386 -0.386 -0.384 -0.367 -0.367 -0.365
 -0.362 -0.362 -0.352 -0.321]
e_fermi =  -0.36668404903158225
[2.    1.999 1.989 1.986 1.962 1.962 1.938 1.023 1.016 0.862 0.587 0.582
 0.094]
entropy correction =  -0.038746392733400505
cycle= 10 E= -13.4017940816343  delta_E= 4.9e-05  |g|= 0.023  |ddm|= 0.0637
HOMO: -0.366263947383645 LUMO: -0.3650882593132516
mo_energy:
[-0.547 -0.403 -0.392 -0.391 -0.386 -0.386 -0.383 -0.366 -0.366 -0.365
 -0.362 -0.362 -0.351 -0.321]
e_fermi =  -0.36630631680372144
[2.    1.999 1.988 1.985 1.963 1.963 1.937 1.008 0.996 0.879 0.596 0.589
 0.096]
entropy correction =  -0.03889811779807811
cycle= 11 E= -13.4021335604356  delta_E= -0.000339  |g|= 0.00697  |ddm|= 0.0454
HOMO: -0.365883034873094 LUMO: -0.3648536253666041
mo_energy:
[-0.547 -0.403 -0.391 -0.391 -0.386 -0.386 -0.383 -0.366 -0.366 -0.365
 -0.362 -0.362 -0.351 -0.321]
e_fermi =  -0.36606210732616623
[2.    1.999 1.987 1.986 1.963 1.963 1.938 1.014 0.982 0.88  0.599 0.593
 0.096]
entropy correction =  -0.038918875233962896
cycle= 12 E= -13.4020640223294  delta_E= 6.95e-05  |g|= 0.00926  |ddm|= 0.0419
HOMO: -0.3663839528844842 LUMO: -0.365042212647418
mo_energy:
[-0.547 -0.404 -0.392 -0.391 -0.386 -0.386 -0.384 -0.366 -0.366 -0.365
 -0.362 -0.362 -0.351 -0.321]
e_fermi =  -0.36632056274118713
[2.    1.999 1.988 1.986 1.963 1.963 1.938 1.006 1.006 0.873 0.593 0.589
 0.095]
entropy correction =  -0.0388425496641745
cycle= 13 E= -13.402177246832  delta_E= -0.000113  |g|= 0.000595  |ddm|= 0.0311
HOMO: -0.36639845770872176 LUMO: -0.3650595867275426
mo_energy:
[-0.547 -0.404 -0.392 -0.391 -0.386 -0.386 -0.384 -0.366 -0.366 -0.365
 -0.362 -0.362 -0.351 -0.321]
e_fermi =  -0.36634049248947503
[2.    1.999 1.988 1.986 1.963 1.963 1.938 1.008 1.006 0.873 0.593 0.588
 0.095]
entropy correction =  -0.03884058029633542
cycle= 14 E= -13.402173942754  delta_E= 3.3e-06  |g|= 0.00222  |ddm|= 0.0049
HOMO: -0.36635883165826055 LUMO: -0.3650343393299812
mo_energy:
[-0.547 -0.404 -0.392 -0.391 -0.386 -0.386 -0.384 -0.366 -0.366 -0.365
 -0.362 -0.362 -0.351 -0.321]
e_fermi =  -0.3663098921348954
[2.    1.999 1.988 1.986 1.963 1.963 1.938 1.007 1.005 0.873 0.594 0.589
 0.096]
entropy correction =  -0.03884438656696421
cycle= 15 E= -13.4021768740344  delta_E= -2.93e-06  |g|= 0.000884  |ddm|= 0.00423
HOMO: -0.3663844986594078 LUMO: -0.3650512970805556
mo_energy:
[-0.547 -0.404 -0.392 -0.391 -0.386 -0.386 -0.384 -0.366 -0.366 -0.365
 -0.362 -0.362 -0.351 -0.321]
e_fermi =  -0.36632797875708273
[2.    1.999 1.988 1.986 1.963 1.963 1.938 1.007 1.006 0.873 0.594 0.588
 0.096]
entropy correction =  -0.038844307114463635
cycle= 16 E= -13.4021772818237  delta_E= -4.08e-07  |g|= 0.000617  |ddm|= 0.00302
HOMO: -0.36640235124658954 LUMO: -0.3650620716204769
mo_energy:
[-0.547 -0.404 -0.392 -0.391 -0.386 -0.386 -0.384 -0.366 -0.366 -0.365
 -0.362 -0.362 -0.351 -0.321]
e_fermi =  -0.3663404604133724
[2.    1.999 1.988 1.986 1.963 1.963 1.938 1.007 1.006 0.873 0.593 0.588
 0.095]
entropy correction =  -0.03884287449762203
cycle= 17 E= -13.4021773040521  delta_E= -2.22e-08  |g|= 0.000697  |ddm|= 0.00203
HOMO: -0.36640407138418635 LUMO: -0.3650632828760417
mo_energy:
[-0.547 -0.404 -0.392 -0.391 -0.386 -0.386 -0.384 -0.366 -0.366 -0.365
 -0.362 -0.362 -0.351 -0.321]
e_fermi =  -0.36634210997464867
[2.    1.999 1.988 1.986 1.963 1.963 1.938 1.007 1.006 0.873 0.593 0.588
 0.095]
entropy correction =  -0.038842515113380265
cycle= 18 E= -13.4021775926335  delta_E= -2.89e-07  |g|= 0.000232  |ddm|= 0.00154
HOMO: -0.3663915747521619 LUMO: -0.3650543923202638
mo_energy:
[-0.547 -0.404 -0.392 -0.391 -0.386 -0.386 -0.384 -0.366 -0.366 -0.365
 -0.362 -0.362 -0.351 -0.321]
e_fermi =  -0.366331821520734
[2.    1.999 1.988 1.986 1.963 1.963 1.938 1.007 1.006 0.873 0.593 0.589
 0.095]
entropy correction =  -0.03884448669811191
cycle= 19 E= -13.4021776137607  delta_E= -2.11e-08  |g|= 0.000185  |ddm|= 0.000668
HOMO: -0.36639244803668014 LUMO: -0.36505483732505395
mo_energy:
[-0.547 -0.404 -0.392 -0.391 -0.386 -0.386 -0.384 -0.366 -0.366 -0.365
 -0.362 -0.362 -0.351 -0.321]
e_fermi =  -0.3663326155409576
[2.    1.999 1.988 1.986 1.963 1.963 1.938 1.007 1.006 0.873 0.593 0.589
 0.095]
entropy correction =  -0.03884391542720234
cycle= 20 E= -13.402177637284  delta_E= -2.35e-08  |g|= 5.79e-05  |ddm|= 0.000362
HOMO: -0.3663928781710705 LUMO: -0.3650548964244477
mo_energy:
[-0.547 -0.404 -0.392 -0.391 -0.386 -0.386 -0.384 -0.366 -0.366 -0.365
 -0.362 -0.362 -0.351 -0.321]
e_fermi =  -0.36633289930493607
[2.    1.999 1.988 1.986 1.963 1.963 1.938 1.007 1.006 0.873 0.593 0.589
 0.095]
entropy correction =  -0.0388435205417789
cycle= 21 E= -13.4021776388118  delta_E= -1.53e-09  |g|= 2.71e-05  |ddm|= 0.000156
HOMO: -0.36639435551193583 LUMO: -0.3650555260879761
mo_energy:
[-0.547 -0.404 -0.392 -0.391 -0.386 -0.386 -0.384 -0.366 -0.366 -0.365
 -0.362 -0.362 -0.351 -0.321]
e_fermi =  -0.36633388623252605
[2.    1.999 1.988 1.986 1.963 1.963 1.938 1.007 1.006 0.873 0.593 0.589
 0.095]
entropy correction =  -0.03884295323704942
cycle= 22 E= -13.4021776382127  delta_E= 5.99e-10  |g|= 3.72e-05  |ddm|= 0.000189
HOMO: -0.36639277158166134 LUMO: -0.36505477162251515
mo_energy:
[-0.547 -0.404 -0.392 -0.391 -0.386 -0.386 -0.384 -0.366 -0.366 -0.365
 -0.362 -0.362 -0.351 -0.321]
e_fermi =  -0.3663327687337834
[2.    1.999 1.988 1.986 1.963 1.963 1.938 1.007 1.006 0.873 0.593 0.589
 0.095]
entropy correction =  -0.03884352974007098
cycle= 23 E= -13.4021776397762  delta_E= -1.56e-09  |g|= 5.89e-06  |ddm|= 0.000118
HOMO: -0.36639244588166753 LUMO: -0.3650545463497563
mo_energy:
[-0.547 -0.404 -0.392 -0.391 -0.386 -0.386 -0.384 -0.366 -0.366 -0.365
 -0.362 -0.362 -0.351 -0.321]
e_fermi =  -0.36633252338594424
[2.    1.999 1.988 1.986 1.963 1.963 1.938 1.007 1.006 0.873 0.593 0.589
 0.095]
entropy correction =  -0.038843557227479335
cycle= 24 E= -13.4021776393999  delta_E= 3.76e-10  |g|= 2.34e-05  |ddm|= 4.29e-05
HOMO: -0.36639375950119785 LUMO: -0.3650552597460737
mo_energy:
[-0.547 -0.404 -0.392 -0.391 -0.386 -0.386 -0.384 -0.366 -0.366 -0.365
 -0.362 -0.362 -0.351 -0.321]
e_fermi =  -0.36633333863995576
[2.    1.999 1.988 1.986 1.963 1.963 1.938 1.007 1.006 0.873 0.593 0.589
 0.095]
entropy correction =  -0.038843420022124334
Extra cycle  E= -13.4021775804302  delta_E= 5.9e-08  |g|= 0.00029  |ddm|= 0.000457
converged SCF energy = -13.4021775804302


******** <class 'pydmfet.dfet_ao.scf.EmbedSCF'> flags ********
method = EmbedSCF-RKS-RHF
initial guess = minao
damping factor = 0
level shift factor = 0
DIIS = <class 'pyscf.scf.diis.CDIIS'>
DIIS start cycle = 1
DIIS space = 8
SCF tol = 1e-09
SCF gradient tol = None
max. SCF cycles = 50
direct_scf = False
chkfile to save SCF result = /tmp/tmp02ghbbir
max_memory 4000 MB (current use 5573 MB)
XC functionals = pbe,pbe
small_rho_cutoff = 1e-07
radial grids: 
    Treutler-Ahlrichs (JCP 102, 346 (M4)) radial grids
    
becke partition: Becke, JCP, 88, 2547 (1988)
pruning grids: <function nwchem_prune at 0x2b8ce932a400>
grids dens level: 3
symmetrized grids: False
atomic radii adjust function: <function treutler_atomic_radii_adjust at 0x2b8ce932a378>
Set gradient conv threshold to 3.16228e-05
tot grids = 190200
init E= -9.12409660460346
HOMO: -0.18192647639429294 LUMO: -0.17107868994335473
mo_energy:
[-0.296 -0.296 -0.264 -0.236 -0.191 -0.188 -0.187 -0.182 -0.182 -0.171
 -0.167 -0.158 -0.157 -0.149]
e_fermi =  -0.17484506915243242
[2.000e+00 2.000e+00 2.000e+00 2.000e+00 1.917e+00 1.853e+00 1.852e+00
 1.612e+00 1.610e+00 6.402e-01 3.714e-01 6.070e-02 5.932e-02 1.180e-02
 1.161e-02 1.032e-03]
entropy correction =  -0.03137256900747971
cycle= 1 E= -12.4369597508594  delta_E= -3.31  |g|= 0.773  |ddm|= 5.23
HOMO: -0.13295506798671536 LUMO: -0.1298359184039448
mo_energy:
[-0.352 -0.352 -0.312 -0.262 -0.239 -0.239 -0.152 -0.133 -0.133 -0.13
 -0.111 -0.11  -0.11  -0.103]
e_fermi =  -0.12899244641005134
[2.000e+00 2.000e+00 2.000e+00 2.000e+00 2.000e+00 2.000e+00 1.982e+00
 1.395e+00 1.377e+00 1.084e+00 4.911e-02 4.618e-02 4.223e-02 1.200e-02
 1.067e-02 1.033e-03]
entropy correction =  -0.023834696467323557
cycle= 2 E= -12.3585756234403  delta_E= 0.0784  |g|= 0.988  |ddm|= 2.91
HOMO: -0.21788230929796204 LUMO: -0.20953051348034782
mo_energy:
[-0.375 -0.375 -0.342 -0.294 -0.24  -0.24  -0.235 -0.218 -0.218 -0.21
 -0.208 -0.208 -0.2   -0.191]
e_fermi =  -0.21470684485849115
[2.000e+00 2.000e+00 2.000e+00 2.000e+00 1.988e+00 1.988e+00 1.967e+00
 1.313e+00 1.307e+00 5.241e-01 3.911e-01 3.880e-01 1.007e-01 1.612e-02
 1.587e-02 1.187e-03]
entropy correction =  -0.0330539672578189
cycle= 3 E= -12.7480914905317  delta_E= -0.39  |g|= 0.227  |ddm|= 1.39
HOMO: -0.21839220373712107 LUMO: -0.21361407477434033
mo_energy:
[-0.365 -0.364 -0.333 -0.289 -0.233 -0.228 -0.227 -0.218 -0.218 -0.214
 -0.214 -0.209 -0.201 -0.192]
e_fermi =  -0.21613412730618303
[2.    2.    2.    2.    1.93  1.828 1.81  1.227 1.222 0.753 0.745 0.358
 0.095 0.016 0.016]
entropy correction =  -0.0417451715959728
cycle= 4 E= -12.7730588224372  delta_E= -0.025  |g|= 0.0705  |ddm|= 0.536
HOMO: -0.21859568099158502 LUMO: -0.21386171239407398
mo_energy:
[-0.365 -0.364 -0.332 -0.289 -0.233 -0.227 -0.227 -0.219 -0.219 -0.214
 -0.213 -0.209 -0.201 -0.192]
e_fermi =  -0.21621485040554939
[2.    2.    2.    2.    1.936 1.809 1.791 1.246 1.234 0.769 0.712 0.382
 0.092 0.015 0.014]
entropy correction =  -0.041989389322834365
cycle= 5 E= -12.7557558700125  delta_E= 0.0173  |g|= 0.168  |ddm|= 0.35
HOMO: -0.21825585031106867 LUMO: -0.21351237967807166
mo_energy:
[-0.364 -0.364 -0.332 -0.288 -0.233 -0.227 -0.227 -0.218 -0.218 -0.214
 -0.213 -0.209 -0.201 -0.192]
e_fermi =  -0.21598730461830742
[2.    2.    2.    2.    1.934 1.816 1.799 1.227 1.223 0.757 0.739 0.383
 0.089 0.016 0.016]
entropy correction =  -0.04202315269171209
cycle= 6 E= -12.7769163405138  delta_E= -0.0212  |g|= 0.0199  |ddm|= 0.262
HOMO: -0.2181595589010501 LUMO: -0.21321262900641322
mo_energy:
[-0.364 -0.363 -0.331 -0.288 -0.232 -0.227 -0.226 -0.218 -0.218 -0.213
 -0.213 -0.208 -0.2   -0.192]
e_fermi =  -0.21574409548539245
[2.    2.    2.    2.    1.932 1.822 1.787 1.239 1.237 0.752 0.731 0.378
 0.088 0.016 0.016]
entropy correction =  -0.041982853013027836
cycle= 7 E= -12.7763379649703  delta_E= 0.000578  |g|= 0.0367  |ddm|= 0.114
HOMO: -0.21809384921213623 LUMO: -0.21316406590522516
mo_energy:
[-0.364 -0.363 -0.331 -0.288 -0.232 -0.227 -0.227 -0.218 -0.218 -0.213
 -0.213 -0.208 -0.2   -0.192]
e_fermi =  -0.21573284418826374
[2.    2.    2.    2.    1.932 1.806 1.803 1.237 1.232 0.749 0.745 0.375
 0.088 0.016 0.016]
entropy correction =  -0.04203659051336873
cycle= 8 E= -12.777322748824  delta_E= -0.000985  |g|= 0.00394  |ddm|= 0.0777
HOMO: -0.21822720201389462 LUMO: -0.21334565486310927
mo_energy:
[-0.364 -0.363 -0.332 -0.288 -0.233 -0.227 -0.227 -0.218 -0.218 -0.213
 -0.213 -0.209 -0.2   -0.192]
e_fermi =  -0.21586638289676954
[2.    2.    2.    2.    1.932 1.807 1.8   1.236 1.232 0.753 0.745 0.374
 0.088 0.016 0.016]
entropy correction =  -0.042055092466202995
cycle= 9 E= -12.7772727181013  delta_E= 5e-05  |g|= 0.00906  |ddm|= 0.0207
HOMO: -0.21831098895765494 LUMO: -0.2134446792409557
mo_energy:
[-0.364 -0.364 -0.332 -0.288 -0.233 -0.227 -0.227 -0.218 -0.218 -0.213
 -0.213 -0.209 -0.201 -0.192]
e_fermi =  -0.21594898532029433
[2.    2.    2.    2.    1.932 1.805 1.8   1.235 1.232 0.755 0.748 0.373
 0.088 0.016 0.016]
entropy correction =  -0.042079204192655054
cycle= 10 E= -12.7773286376052  delta_E= -5.59e-05  |g|= 0.00303  |ddm|= 0.0146
HOMO: -0.21831692650187245 LUMO: -0.21343004031820123
mo_energy:
[-0.364 -0.364 -0.332 -0.288 -0.233 -0.227 -0.227 -0.218 -0.218 -0.213
 -0.213 -0.209 -0.201 -0.192]
e_fermi =  -0.21595826947618274
[2.    2.    2.    2.    1.932 1.805 1.8   1.235 1.232 0.752 0.751 0.373
 0.088 0.016 0.016]
entropy correction =  -0.04207940671105725
cycle= 11 E= -12.777333211753  delta_E= -4.57e-06  |g|= 0.00206  |ddm|= 0.0104
HOMO: -0.21831248889112823 LUMO: -0.21343034467210706
mo_energy:
[-0.364 -0.364 -0.332 -0.288 -0.233 -0.227 -0.227 -0.218 -0.218 -0.213
 -0.213 -0.209 -0.201 -0.192]
e_fermi =  -0.21596043694256817
[2.    2.    2.    2.    1.932 1.802 1.801 1.236 1.231 0.752 0.751 0.373
 0.088 0.016 0.016]
entropy correction =  -0.04209381295705969
cycle= 12 E= -12.7773350763385  delta_E= -1.86e-06  |g|= 0.00134  |ddm|= 0.00674
HOMO: -0.21828008400566562 LUMO: -0.213385261666063
mo_energy:
[-0.364 -0.364 -0.332 -0.288 -0.233 -0.227 -0.227 -0.218 -0.218 -0.213
 -0.213 -0.209 -0.201 -0.192]
e_fermi =  -0.21592431661342099
[2.    2.    2.    2.    1.932 1.804 1.802 1.235 1.231 0.751 0.75  0.373
 0.088 0.016 0.016]
entropy correction =  -0.04206580480617749
cycle= 13 E= -12.7773366636908  delta_E= -1.59e-06  |g|= 8.25e-05  |ddm|= 0.00353
HOMO: -0.21827913382127542 LUMO: -0.21338391952098254
mo_energy:
[-0.364 -0.364 -0.332 -0.288 -0.233 -0.227 -0.227 -0.218 -0.218 -0.213
 -0.213 -0.209 -0.201 -0.192]
e_fermi =  -0.21592225896393935
[2.    2.    2.    2.    1.932 1.804 1.802 1.235 1.231 0.751 0.75  0.373
 0.088 0.016 0.016]
entropy correction =  -0.04206796745312093
cycle= 14 E= -12.7773366404067  delta_E= 2.33e-08  |g|= 0.000196  |ddm|= 0.000422
HOMO: -0.2182787333678387 LUMO: -0.2133831956427997
mo_energy:
[-0.364 -0.364 -0.332 -0.288 -0.233 -0.227 -0.227 -0.218 -0.218 -0.213
 -0.213 -0.209 -0.201 -0.192]
e_fermi =  -0.21592174150401597
[2.    2.    2.    2.    1.932 1.804 1.802 1.235 1.231 0.751 0.75  0.373
 0.088 0.016 0.016]
entropy correction =  -0.04206797159503029
cycle= 15 E= -12.777336669443  delta_E= -2.9e-08  |g|= 1.67e-05  |ddm|= 0.000308
HOMO: -0.21828033639299427 LUMO: -0.21338500337030683
mo_energy:
[-0.364 -0.364 -0.332 -0.288 -0.233 -0.227 -0.227 -0.218 -0.218 -0.213
 -0.213 -0.209 -0.201 -0.192]
e_fermi =  -0.21592363856960695
[2.    2.    2.    2.    1.932 1.804 1.802 1.235 1.231 0.751 0.75  0.373
 0.088 0.016 0.016]
entropy correction =  -0.042067774450749246
cycle= 16 E= -12.7773366675361  delta_E= 1.91e-09  |g|= 5.19e-05  |ddm|= 0.000156
HOMO: -0.21828075106201478 LUMO: -0.2133856941569567
mo_energy:
[-0.364 -0.364 -0.332 -0.288 -0.233 -0.227 -0.227 -0.218 -0.218 -0.213
 -0.213 -0.209 -0.201 -0.192]
e_fermi =  -0.2159240527234328
[2.    2.    2.    2.    1.932 1.804 1.802 1.235 1.231 0.751 0.75  0.373
 0.088 0.016 0.016]
entropy correction =  -0.042067734199687054
cycle= 17 E= -12.7773366693433  delta_E= -1.81e-09  |g|= 2.19e-05  |ddm|= 0.000137
HOMO: -0.21828049454145337 LUMO: -0.21338544070678608
mo_energy:
[-0.364 -0.364 -0.332 -0.288 -0.233 -0.227 -0.227 -0.218 -0.218 -0.213
 -0.213 -0.209 -0.201 -0.192]
e_fermi =  -0.2159237873518263
[2.    2.    2.    2.    1.932 1.804 1.802 1.235 1.231 0.751 0.75  0.373
 0.088 0.016 0.016]
entropy correction =  -0.042067722919153935
cycle= 18 E= -12.7773366695726  delta_E= -2.29e-10  |g|= 1.29e-05  |ddm|= 6.46e-05
HOMO: -0.2182802358024638 LUMO: -0.21338473811057693
mo_energy:
[-0.364 -0.364 -0.332 -0.288 -0.233 -0.227 -0.227 -0.218 -0.218 -0.213
 -0.213 -0.209 -0.201 -0.192]
e_fermi =  -0.21592346297591622
[2.    2.    2.    2.    1.932 1.804 1.802 1.235 1.231 0.751 0.75  0.373
 0.088 0.016 0.016]
entropy correction =  -0.04206781311927545
Extra cycle  E= -12.7773366643116  delta_E= 5.26e-09  |g|= 8.28e-05  |ddm|= 0.000191
converged SCF energy = -12.7773366643116
|umat| =  2.7541198729625647
rks_ao.ne_frozen =  0
Set gradient conv threshold to 3.16228e-05
Initial guess from hcore.
HOMO:  -3.505811834814337 LUMO:  -3.312287772014967
Fermi energy:      -3.4073017637
[2. 2. 2. 2. 2. 2. 2. 2. 2.]
tot grids = 190200
init E= -10.1205291199117
HOMO:  -0.06790535731956285 LUMO:  -0.06759637828329149
Fermi energy:      -0.0724179009
[2.     2.     2.     2.     2.     2.     1.9951 1.9484 0.5771 0.552
 0.4741 0.4532]
entropy correction =  -0.024096574351828944
cycle= 1 E= -10.2301438248423  delta_E= -0.11  |g|= 2.75  |ddm|= 7.87
HOMO:  -0.77835413016345 LUMO:  -0.6489071075481818
Fermi energy:      -0.7123147054
[2. 2. 2. 2. 2. 2. 2. 2. 2.]
entropy correction =  -1.0286038895270474e-06
cycle= 2 E= -11.541708024057  delta_E= -1.31  |g|= 2.03  |ddm|= 6.47
HOMO:  -0.45056896706223143 LUMO:  -0.41765398297190937
Fermi energy:      -0.4348046429
[2.0000e+00 2.0000e+00 2.0000e+00 2.0000e+00 1.9997e+00 1.9970e+00
 1.9970e+00 1.9187e+00 1.9180e+00 6.2734e-02 6.1973e-02 2.7130e-02
 1.7028e-02 6.5959e-04]
entropy correction =  -0.007664639429265592
cycle= 3 E= -13.2337583917835  delta_E= -1.69  |g|= 0.545  |ddm|= 3.79
HOMO:  -0.3660754037982018 LUMO:  -0.36542425736570144
Fermi energy:      -0.3682570538
[2.0000e+00 1.9986e+00 1.9951e+00 1.9944e+00 1.9771e+00 1.9763e+00
 1.8840e+00 1.2641e+00 7.8523e-01 7.2406e-01 6.0491e-01 5.5602e-01
 2.3993e-01 2.0206e-04]
entropy correction =  -0.03944575098160324
cycle= 4 E= -13.3669945571447  delta_E= -0.133  |g|= 0.205  |ddm|= 1.68
HOMO:  -0.368969473518287 LUMO:  -0.36346949735590717
Fermi energy:      -0.3679762083
[2.0000e+00 1.9998e+00 1.9985e+00 1.9984e+00 1.9835e+00 1.9778e+00
 1.9469e+00 1.4335e+00 1.0990e+00 5.7755e-01 4.6794e-01 4.4002e-01
 7.6874e-02 1.6763e-04]
entropy correction =  -0.033648907534015476
cycle= 5 E= -13.0079688996777  delta_E= 0.359  |g|= 0.752  |ddm|= 1.39
HOMO:  -0.37356815118252384 LUMO:  -0.369245312641292
Fermi energy:      -0.3720263592
[2.0000e+00 1.9998e+00 1.9965e+00 1.9943e+00 1.9734e+00 1.9666e+00
 1.9626e+00 1.1697e+00 1.1530e+00 7.2885e-01 4.8504e-01 4.8014e-01
 8.9932e-02 2.0655e-04]
entropy correction =  -0.03587644748833166
cycle= 6 E= -13.3879166163541  delta_E= -0.38  |g|= 0.136  |ddm|= 1.05
HOMO:  -0.3721522035164127 LUMO:  -0.37112054439268066
Fermi energy:      -0.3715246038
[2.0000e+00 1.9993e+00 1.9957e+00 1.9854e+00 1.9772e+00 1.9480e+00
 1.9295e+00 1.2188e+00 1.0627e+00 9.5962e-01 5.5974e-01 2.9523e-01
 6.8677e-02 2.2617e-04]
entropy correction =  -0.036118161778244
cycle= 7 E= -13.3751944541193  delta_E= 0.0127  |g|= 0.157  |ddm|= 0.575
HOMO:  -0.3706144617903581 LUMO:  -0.3679857650769407
Fermi energy:      -0.3700896588
[2.0000e+00 1.9989e+00 1.9909e+00 1.9889e+00 1.9632e+00 1.9553e+00
 1.9370e+00 1.1693e+00 1.0524e+00 7.9266e-01 5.4242e-01 5.2528e-01
 8.3423e-02 2.4245e-04]
entropy correction =  -0.03783438294672673
cycle= 8 E= -13.399158558741  delta_E= -0.024  |g|= 0.0595  |ddm|= 0.486
HOMO:  -0.368324636259685 LUMO:  -0.36610020335509674
Fermi energy:      -0.3678328089
[2.0000e+00 1.9989e+00 1.9896e+00 1.9862e+00 1.9643e+00 1.9587e+00
 1.9373e+00 1.0631e+00 1.0491e+00 8.2845e-01 5.7691e-01 5.5929e-01
 8.7909e-02 2.3580e-04]
entropy correction =  -0.038444110411492954
cycle= 9 E= -13.3904020738221  delta_E= 0.00876  |g|= 0.129  |ddm|= 0.274
HOMO:  -0.36497887260963463 LUMO:  -0.3645460333308926
Fermi energy:      -0.3656597523
[2.0000e+00 1.9988e+00 1.9866e+00 1.9824e+00 1.9652e+00 1.9638e+00
 1.9357e+00 1.0365e+00 9.3202e-01 8.8909e-01 6.2585e-01 5.8925e-01
 9.4542e-02 2.3045e-04]
entropy correction =  -0.03905599312836006
cycle= 10 E= -13.400657940837  delta_E= -0.0103  |g|= 0.0405  |ddm|= 0.24
HOMO:  -0.36514635210098945 LUMO:  -0.36439494813147133
Fermi energy:      -0.3653816742
[2.0000e+00 1.9988e+00 1.9866e+00 1.9845e+00 1.9640e+00 1.9637e+00
 1.9385e+00 9.7914e-01 9.7647e-01 9.0165e-01 6.0661e-01 6.0166e-01
 9.8068e-02 2.2921e-04]
entropy correction =  -0.03904815783022635
cycle= 11 E= -13.4013513610324  delta_E= -0.000693  |g|= 0.0367  |ddm|= 0.131
HOMO:  -0.3652053177663066 LUMO:  -0.3643757414245481
Fermi energy:      -0.3654776096
[2.0000e+00 1.9989e+00 1.9871e+00 1.9847e+00 1.9641e+00 1.9636e+00
 1.9391e+00 9.9840e-01 9.7278e-01 8.9026e-01 6.0529e-01 5.9830e-01
 9.7255e-02 2.3128e-04]
entropy correction =  -0.03897733439030899
cycle= 12 E= -13.4019088779749  delta_E= -0.000558  |g|= 0.0221  |ddm|= 0.0933
HOMO:  -0.366330071713374 LUMO:  -0.3650140605340947
Fermi energy:      -0.3662722162
[2.0000e+00 1.9988e+00 1.9880e+00 1.9861e+00 1.9628e+00 1.9626e+00
 1.9376e+00 1.0091e+00 1.0058e+00 8.7484e-01 5.9154e-01 5.8673e-01
 9.5938e-02 2.3533e-04]
entropy correction =  -0.03885260994510385
cycle= 13 E= -13.4022881329493  delta_E= -0.000379  |g|= 0.00166  |ddm|= 0.0507
HOMO:  -0.3664472445327079 LUMO:  -0.36507966846485845
Fermi energy:      -0.3663692347
[2.0000e+00 1.9989e+00 1.9879e+00 1.9860e+00 1.9629e+00 1.9627e+00
 1.9383e+00 1.0093e+00 1.0078e+00 8.7175e-01 5.9189e-01 5.8703e-01
 9.5425e-02 2.3460e-04]
entropy correction =  -0.038830131138592926
cycle= 14 E= -13.402288124345  delta_E= 8.6e-09  |g|= 0.00191  |ddm|= 0.00764
HOMO:  -0.36652746686827575 LUMO:  -0.36513226418999173
Fermi energy:      -0.3664339592
[2.0000e+00 1.9989e+00 1.9880e+00 1.9860e+00 1.9629e+00 1.9626e+00
 1.9383e+00 1.0096e+00 1.0094e+00 8.7056e-01 5.9155e-01 5.8681e-01
 9.5234e-02 2.3460e-04]
entropy correction =  -0.038822652247927955
cycle= 15 E= -13.4022878929508  delta_E= 2.31e-07  |g|= 0.00202  |ddm|= 0.00562
HOMO:  -0.3664858053975313 LUMO:  -0.36511405717997647
Fermi energy:      -0.3664029334
[2.0000e+00 1.9988e+00 1.9879e+00 1.9860e+00 1.9628e+00 1.9627e+00
 1.9380e+00 1.0091e+00 1.0083e+00 8.7182e-01 5.9180e-01 5.8708e-01
 9.5399e-02 2.3489e-04]
entropy correction =  -0.03883644555358894
cycle= 16 E= -13.4022909258464  delta_E= -3.03e-06  |g|= 0.0002  |ddm|= 0.00355
HOMO:  -0.36647080309247515 LUMO:  -0.3651061772599312
Fermi energy:      -0.3663894964
[2.0000e+00 1.9988e+00 1.9879e+00 1.9860e+00 1.9629e+00 1.9625e+00
 1.9379e+00 1.0085e+00 1.0081e+00 8.7237e-01 5.9176e-01 5.8747e-01
 9.5465e-02 2.3497e-04]
entropy correction =  -0.03884237752777378
cycle= 17 E= -13.4022902470282  delta_E= 6.79e-07  |g|= 0.000825  |ddm|= 0.00276
HOMO:  -0.3664672882454905 LUMO:  -0.36510429845756065
Fermi energy:      -0.3663883324
[2.0000e+00 1.9988e+00 1.9879e+00 1.9860e+00 1.9629e+00 1.9626e+00
 1.9380e+00 1.0087e+00 1.0079e+00 8.7230e-01 5.9194e-01 5.8730e-01
 9.5462e-02 2.3490e-04]
entropy correction =  -0.03884078825617519
cycle= 18 E= -13.4022909451076  delta_E= -6.98e-07  |g|= 0.00016  |ddm|= 0.00237
HOMO:  -0.36646241409814784 LUMO:  -0.3651017212629761
Fermi energy:      -0.3663859646
[2.0000e+00 1.9988e+00 1.9879e+00 1.9859e+00 1.9629e+00 1.9627e+00
 1.9380e+00 1.0088e+00 1.0076e+00 8.7228e-01 5.9202e-01 5.8736e-01
 9.5454e-02 2.3488e-04]
entropy correction =  -0.038840961586605605
cycle= 19 E= -13.402290946551  delta_E= -1.44e-09  |g|= 0.000143  |ddm|= 0.000728
HOMO:  -0.36646181941607014 LUMO:  -0.3651001698819112
Fermi energy:      -0.3663837980
[2.0000e+00 1.9988e+00 1.9879e+00 1.9859e+00 1.9629e+00 1.9626e+00
 1.9380e+00 1.0085e+00 1.0078e+00 8.7234e-01 5.9205e-01 5.8739e-01
 9.5462e-02 2.3487e-04]
entropy correction =  -0.03884153095464828
cycle= 20 E= -13.4022909022243  delta_E= 4.43e-08  |g|= 0.000306  |ddm|= 0.000791
HOMO:  -0.3664655791778167 LUMO:  -0.3651024346775365
Fermi energy:      -0.3663866338
[2.0000e+00 1.9988e+00 1.9879e+00 1.9860e+00 1.9629e+00 1.9626e+00
 1.9380e+00 1.0086e+00 1.0079e+00 8.7228e-01 5.9197e-01 5.8734e-01
 9.5459e-02 2.3487e-04]
entropy correction =  -0.038840648803707446
cycle= 21 E= -13.4022909548712  delta_E= -5.26e-08  |g|= 0.000151  |ddm|= 0.000606
HOMO:  -0.36646607953369303 LUMO:  -0.36510310001118246
Fermi energy:      -0.3663873583
[2.0000e+00 1.9988e+00 1.9879e+00 1.9860e+00 1.9629e+00 1.9626e+00
 1.9380e+00 1.0087e+00 1.0079e+00 8.7228e-01 5.9195e-01 5.8733e-01
 9.5459e-02 2.3488e-04]
entropy correction =  -0.038840590428829265
cycle= 22 E= -13.4022909705612  delta_E= -1.57e-08  |g|= 1.87e-05  |ddm|= 0.000283
HOMO:  -0.36646716549846975 LUMO:  -0.36510387063096206
Fermi energy:      -0.3663883128
[2.0000e+00 1.9988e+00 1.9879e+00 1.9860e+00 1.9629e+00 1.9626e+00
 1.9380e+00 1.0087e+00 1.0079e+00 8.7226e-01 5.9194e-01 5.8731e-01
 9.5457e-02 2.3488e-04]
entropy correction =  -0.038840420408893614
cycle= 23 E= -13.402290970818  delta_E= -2.57e-10  |g|= 8.63e-06  |ddm|= 5.6e-05
HOMO:  -0.36646889914978503 LUMO:  -0.3651045750880218
Fermi energy:      -0.3663894180
[2.0000e+00 1.9988e+00 1.9879e+00 1.9860e+00 1.9629e+00 1.9626e+00
 1.9380e+00 1.0087e+00 1.0079e+00 8.7222e-01 5.9191e-01 5.8730e-01
 9.5452e-02 2.3488e-04]
entropy correction =  -0.03883998401253632
Extra cycle  E= -13.4022909675427  delta_E= 3.28e-09  |g|= 6.48e-05  |ddm|= 0.000147
entropy correction =  -0.03883998401253632
rks_ao.ne_frozen =  0
Set gradient conv threshold to 3.16228e-05
Initial guess from hcore.
HOMO:  -2.5706977245829488 LUMO:  -2.570327619160922
Fermi energy:      -2.5711390214
[2.0000e+00 2.0000e+00 2.0000e+00 2.0000e+00 2.0000e+00 2.0000e+00
 2.0000e+00 1.9953e+00 9.5590e-01 9.1904e-01 6.1686e-02 5.9467e-02
 4.0599e-03 3.7904e-03 7.4323e-04]
tot grids = 190200
init E= -9.69387883174558
HOMO:  0.01991365417269524 LUMO:  0.022760986421318213
Fermi energy:       0.0197101723
[2.     2.     2.     2.     2.     2.     1.995  1.3651 0.9797 0.704
 0.4447 0.2209 0.1125 0.0847 0.044  0.0359 0.0084 0.0027 0.0024]
entropy correction =  -0.03495828406319926
cycle= 1 E= -10.9842858704343  delta_E= -1.29  |g|= 2.09  |ddm|= 9.58
HOMO:  -0.4505308572371066 LUMO:  -0.43957787979964746
Fermi energy:      -0.4450238780
[2.     2.     2.     2.     2.     2.     1.9994 1.5715 1.501  0.5035
 0.2065 0.1818 0.034  0.0021]
entropy correction =  -0.02380477011844635
cycle= 2 E= -11.0795171906711  delta_E= -0.0952  |g|= 2.12  |ddm|= 9.39
HOMO:  -0.29770722816824485 LUMO:  -0.2839237769075376
Fermi energy:      -0.2895502942
[2.     2.     2.     2.     1.9967 1.9859 1.9772 1.699  1.6727 0.4901
 0.0681 0.0571 0.0471 0.0032 0.0029]
entropy correction =  -0.01955406210729558
cycle= 3 E= -12.2854574846512  delta_E= -1.21  |g|= 0.895  |ddm|= 1.82
HOMO:  -0.26077069070049175 LUMO:  -0.25752055700412835
Fermi energy:      -0.2590576838
[2.0000e+00 2.0000e+00 2.0000e+00 2.0000e+00 1.9992e+00 1.9517e+00
 1.9071e+00 1.7655e+00 1.1696e+00 8.4749e-01 1.4871e-01 1.2937e-01
 7.8132e-02 1.8937e-03 1.0681e-03 1.7047e-04]
entropy correction =  -0.027092645913070416
cycle= 4 E= -11.4895187363098  delta_E= 0.796  |g|= 1.32  |ddm|= 2.13
HOMO:  -0.23855587557834126 LUMO:  -0.23242449437114915
Fermi energy:      -0.2359325435
[2.0000e+00 2.0000e+00 2.0000e+00 2.0000e+00 1.9708e+00 1.9340e+00
 1.8440e+00 1.2886e+00 1.2565e+00 6.6291e-01 6.5362e-01 2.8341e-01
 6.9902e-02 2.2215e-02 1.3323e-02 7.4579e-04]
entropy correction =  -0.037369736433823034
cycle= 5 E= -12.7627386854444  delta_E= -1.27  |g|= 0.13  |ddm|= 2.07
HOMO:  -0.2178892745544714 LUMO:  -0.21468998795139757
Fermi energy:      -0.2163182877
[2.0000e+00 2.0000e+00 2.0000e+00 2.0000e+00 1.9578e+00 1.9437e+00
 1.7744e+00 1.5536e+00 1.1558e+00 8.3859e-01 3.9833e-01 2.3741e-01
 1.1089e-01 1.6891e-02 1.1845e-02 7.3202e-04]
entropy correction =  -0.03641010572060736
cycle= 6 E= -12.5495527781134  delta_E= 0.213  |g|= 0.539  |ddm|= 1.42
HOMO:  -0.217638367975929 LUMO:  -0.21330758207540237
Fermi energy:      -0.2150802569
[2.0000e+00 2.0000e+00 2.0000e+00 2.0000e+00 1.9300e+00 1.7959e+00
 1.7425e+00 1.2630e+00 1.2504e+00 8.2457e-01 7.1427e-01 3.5173e-01
 9.1710e-02 1.9356e-02 1.5609e-02 1.0598e-03]
entropy correction =  -0.04270309473699853
cycle= 7 E= -12.774255875571  delta_E= -0.225  |g|= 0.0538  |ddm|= 1.15
HOMO:  -0.2178800741246533 LUMO:  -0.21403547216238492
Fermi energy:      -0.2155790392
[2.0000e+00 2.0000e+00 2.0000e+00 2.0000e+00 1.9374e+00 1.8799e+00
 1.6919e+00 1.2410e+00 1.2261e+00 8.4686e-01 6.7880e-01 3.7724e-01
 8.7039e-02 1.7124e-02 1.5804e-02 8.8771e-04]
entropy correction =  -0.04211752497292312
cycle= 8 E= -12.7691088239888  delta_E= 0.00515  |g|= 0.101  |ddm|= 0.354
HOMO:  -0.2181661822216074 LUMO:  -0.21309910643411267
Fermi energy:      -0.2157611547
[2.0000e+00 2.0000e+00 2.0000e+00 2.0000e+00 1.9337e+00 1.8181e+00
 1.7896e+00 1.2500e+00 1.2360e+00 7.3991e-01 7.3542e-01 3.7591e-01
 8.8194e-02 1.6755e-02 1.5456e-02 9.1804e-04]
entropy correction =  -0.0419153483445018
cycle= 9 E= -12.7753207153552  delta_E= -0.00621  |g|= 0.051  |ddm|= 0.294
HOMO:  -0.21770625868764 LUMO:  -0.2129035191290562
Fermi energy:      -0.2153737502
[2.0000e+00 2.0000e+00 2.0000e+00 2.0000e+00 1.9317e+00 1.8121e+00
 1.8013e+00 1.2374e+00 1.2291e+00 7.5788e-01 7.3256e-01 3.7623e-01
 8.8573e-02 1.6533e-02 1.5666e-02 9.3374e-04]
entropy correction =  -0.041984433643739064
cycle= 10 E= -12.7771660424796  delta_E= -0.00185  |g|= 0.0141  |ddm|= 0.125
HOMO:  -0.2181663251930143 LUMO:  -0.21329899657718157
Fermi energy:      -0.2158177265
[2.0000e+00 2.0000e+00 2.0000e+00 2.0000e+00 1.9316e+00 1.8037e+00
 1.8013e+00 1.2368e+00 1.2306e+00 7.5332e-01 7.4835e-01 3.7299e-01
 8.8148e-02 1.6188e-02 1.6057e-02 9.2601e-04]
entropy correction =  -0.042079636083435894
cycle= 11 E= -12.7772778083096  delta_E= -0.000112  |g|= 0.00896  |ddm|= 0.0412
HOMO:  -0.2182291623192448 LUMO:  -0.21336156524146707
Fermi energy:      -0.2158804438
[2.0000e+00 2.0000e+00 2.0000e+00 2.0000e+00 1.9317e+00 1.8035e+00
 1.8018e+00 1.2366e+00 1.2306e+00 7.5331e-01 7.4842e-01 3.7284e-01
 8.8016e-02 1.6188e-02 1.6052e-02 9.2432e-04]
entropy correction =  -0.04207257285905236
cycle= 12 E= -12.7773139003839  delta_E= -3.61e-05  |g|= 0.00576  |ddm|= 0.0202
HOMO:  -0.2182906239741732 LUMO:  -0.21340993730991178
Fermi energy:      -0.2159359786
[2.0000e+00 2.0000e+00 2.0000e+00 2.0000e+00 1.9318e+00 1.8030e+00
 1.8020e+00 1.2353e+00 1.2312e+00 7.5263e-01 7.4980e-01 3.7323e-01
 8.7896e-02 1.6247e-02 1.5953e-02 9.2058e-04]
entropy correction =  -0.042077627592523086
cycle= 13 E= -12.7773396072289  delta_E= -2.57e-05  |g|= 0.00173  |ddm|= 0.0118
HOMO:  -0.21833918224618706 LUMO:  -0.2134566545687675
Fermi energy:      -0.2159835577
[2.0000e+00 2.0000e+00 2.0000e+00 2.0000e+00 1.9318e+00 1.8028e+00
 1.8013e+00 1.2352e+00 1.2313e+00 7.5255e-01 7.5088e-01 3.7323e-01
 8.7805e-02 1.6254e-02 1.5934e-02 9.1884e-04]
entropy correction =  -0.04208808750364365
cycle= 14 E= -12.777332754627  delta_E= 6.85e-06  |g|= 0.00346  |ddm|= 0.00736
HOMO:  -0.2182809330987118 LUMO:  -0.21338420519615142
Fermi energy:      -0.2159248668
[2.0000e+00 2.0000e+00 2.0000e+00 2.0000e+00 1.9317e+00 1.8039e+00
 1.8022e+00 1.2354e+00 1.2313e+00 7.5126e-01 7.4996e-01 3.7328e-01
 8.7850e-02 1.6234e-02 1.5967e-02 9.2221e-04]
entropy correction =  -0.04206290607005788
cycle= 15 E= -12.7773419421777  delta_E= -9.19e-06  |g|= 0.000311  |ddm|= 0.00594
HOMO:  -0.21828150366392102 LUMO:  -0.21338597863486325
Fermi energy:      -0.2159249806
[2.0000e+00 2.0000e+00 2.0000e+00 2.0000e+00 1.9317e+00 1.8034e+00
 1.8022e+00 1.2355e+00 1.2314e+00 7.5142e-01 7.5012e-01 3.7328e-01
 8.7837e-02 1.6239e-02 1.5966e-02 9.2212e-04]
entropy correction =  -0.042068281910599525
cycle= 16 E= -12.7773419036823  delta_E= 3.85e-08  |g|= 0.00037  |ddm|= 0.00134
HOMO:  -0.21828691735360475 LUMO:  -0.2133937566739689
Fermi energy:      -0.2159297441
[2.0000e+00 2.0000e+00 2.0000e+00 2.0000e+00 1.9317e+00 1.8037e+00
 1.8017e+00 1.2354e+00 1.2314e+00 7.5170e-01 7.5006e-01 3.7326e-01
 8.7833e-02 1.6232e-02 1.5974e-02 9.2191e-04]
entropy correction =  -0.0420709527197163
cycle= 17 E= -12.7773419426463  delta_E= -3.9e-08  |g|= 0.000298  |ddm|= 0.00123
HOMO:  -0.21828321418162888 LUMO:  -0.21338702857308792
Fermi energy:      -0.2159263398
[2.0000e+00 2.0000e+00 2.0000e+00 2.0000e+00 1.9317e+00 1.8036e+00
 1.8021e+00 1.2354e+00 1.2314e+00 7.5139e-01 7.5019e-01 3.7330e-01
 8.7829e-02 1.6234e-02 1.5970e-02 9.2190e-04]
entropy correction =  -0.04206863660283616
cycle= 18 E= -12.7773420121208  delta_E= -6.95e-08  |g|= 5.58e-05  |ddm|= 0.000795
HOMO:  -0.21828384601333525 LUMO:  -0.2133881660601138
Fermi energy:      -0.2159269154
[2.0000e+00 2.0000e+00 2.0000e+00 2.0000e+00 1.9317e+00 1.8036e+00
 1.8020e+00 1.2354e+00 1.2314e+00 7.5144e-01 7.5017e-01 3.7328e-01
 8.7829e-02 1.6237e-02 1.5967e-02 9.2192e-04]
entropy correction =  -0.04206892255841983
cycle= 19 E= -12.7773420106581  delta_E= 1.46e-09  |g|= 7.83e-05  |ddm|= 0.00027
HOMO:  -0.21828510483930216 LUMO:  -0.21338915782951828
Fermi energy:      -0.2159281424
[2.0000e+00 2.0000e+00 2.0000e+00 2.0000e+00 1.9317e+00 1.8035e+00
 1.8020e+00 1.2354e+00 1.2314e+00 7.5142e-01 7.5025e-01 3.7328e-01
 8.7828e-02 1.6235e-02 1.5969e-02 9.2187e-04]
entropy correction =  -0.04206961288180461
cycle= 20 E= -12.7773420137907  delta_E= -3.13e-09  |g|= 4.67e-05  |ddm|= 0.000219
HOMO:  -0.21828490783683083 LUMO:  -0.21338910065359382
Fermi energy:      -0.2159279478
[2.0000e+00 2.0000e+00 2.0000e+00 2.0000e+00 1.9317e+00 1.8035e+00
 1.8020e+00 1.2354e+00 1.2314e+00 7.5143e-01 7.5022e-01 3.7328e-01
 8.7828e-02 1.6235e-02 1.5968e-02 9.2187e-04]
entropy correction =  -0.042069332014931814
cycle= 21 E= -12.7773420114547  delta_E= 2.34e-09  |g|= 7.38e-05  |ddm|= 0.000143
HOMO:  -0.21828462652453015 LUMO:  -0.2133890749503278
Fermi energy:      -0.2159276728
[2.0000e+00 2.0000e+00 2.0000e+00 2.0000e+00 1.9317e+00 1.8036e+00
 1.8020e+00 1.2354e+00 1.2314e+00 7.5146e-01 7.5017e-01 3.7328e-01
 8.7828e-02 1.6236e-02 1.5967e-02 9.2187e-04]
entropy correction =  -0.04206897333139047
cycle= 22 E= -12.777342014963  delta_E= -3.51e-09  |g|= 2.43e-05  |ddm|= 0.000137
HOMO:  -0.2182845892664939 LUMO:  -0.2133887545959469
Fermi energy:      -0.2159276420
[2.0000e+00 2.0000e+00 2.0000e+00 2.0000e+00 1.9317e+00 1.8036e+00
 1.8020e+00 1.2354e+00 1.2314e+00 7.5143e-01 7.5020e-01 3.7328e-01
 8.7828e-02 1.6235e-02 1.5968e-02 9.2188e-04]
entropy correction =  -0.04206898974667832
cycle= 23 E= -12.7773420152442  delta_E= -2.81e-10  |g|= 2.09e-05  |ddm|= 7.17e-05
HOMO:  -0.2182840583384031 LUMO:  -0.21338818101447854
Fermi energy:      -0.2159271432
[2.0000e+00 2.0000e+00 2.0000e+00 2.0000e+00 1.9317e+00 1.8036e+00
 1.8020e+00 1.2354e+00 1.2314e+00 7.5142e-01 7.5018e-01 3.7328e-01
 8.7828e-02 1.6235e-02 1.5968e-02 9.2191e-04]
entropy correction =  -0.042068753021006565
Extra cycle  E= -12.7773419866669  delta_E= 2.86e-08  |g|= 0.000195  |ddm|= 0.000321
degenerate subspace detected:
nsub = 3
subspace 1:
5, 6, 
subspace 2:
8, 9, 
subspace 3:
11, 12, 

 Adding contributions from fluctuation of occupation numbers.
degenerate subspace detected:
nsub = 4
subspace 1:
6, 7, 
subspace 2:
8, 9, 
subspace 3:
10, 11, 
subspace 4:
14, 15, 

 Adding contributions from fluctuation of occupation numbers.
entropy correction =  -0.042068753021006565
2-norm (grad),       max(grad):
0.04882303118102138 ,  0.0037532420624291976
time of hessian construction : 26.250  (cpu),  1.114  (wall) 
time of hessian construction : 23.540  (cpu),  0.591  (wall) 
f =  0.001191844186851493
|umat| =  3.1702592324369987
rks_ao.ne_frozen =  0
Set gradient conv threshold to 3.16228e-05
Initial guess from hcore.
HOMO:  -3.58947461795023 LUMO:  -3.5460679210871846
Fermi energy:      -3.5676940634
[2.     2.     2.     2.     2.     2.     2.     1.9992 1.9747 0.0261]
tot grids = 190200
init E= -23.7341357794595
HOMO:  -0.45967701247283926 LUMO:  -0.4255412400361706
Fermi energy:      -0.4425874732
[2.     2.     2.     2.     2.     2.     2.     1.9995 1.9365 0.064 ]
entropy correction =  -0.0028494651667652394
cycle= 1 E= -25.5462487269798  delta_E= -1.81  |g|= 1.98  |ddm|= 44.5
HOMO:  -0.9869301105033299 LUMO:  -0.9297681008302262
Fermi energy:      -0.9582475061
[2.     2.     2.     2.     2.     2.     2.     1.9997 1.9936 0.0067]
entropy correction =  -0.0004543781502298901
cycle= 2 E= -26.1571624772926  delta_E= -0.611  |g|= 1.55  |ddm|= 17.5
HOMO:  -0.7950107316965499 LUMO:  -0.7173297963337467
Fermi energy:      -0.7561312458
[2.0000e+00 2.0000e+00 2.0000e+00 2.0000e+00 2.0000e+00 2.0000e+00
 2.0000e+00 2.0000e+00 1.9992e+00 8.5230e-04]
entropy correction =  -7.575571596414432e-05
cycle= 3 E= -26.8022247298097  delta_E= -0.645  |g|= 0.724  |ddm|= 11.4
HOMO:  -0.7314913814459608 LUMO:  -0.6662635530814398
Fermi energy:      -0.6988221820
[2.     2.     2.     2.     2.     2.     2.     1.9999 1.9971 0.003 ]
entropy correction =  -0.00023223178567482344
cycle= 4 E= -26.9630127074782  delta_E= -0.161  |g|= 0.227  |ddm|= 2.89
HOMO:  -0.7708140845720977 LUMO:  -0.6909781630428845
Fermi energy:      -0.7302704417
[2.0000e+00 2.0000e+00 2.0000e+00 2.0000e+00 2.0000e+00 2.0000e+00
 2.0000e+00 1.9996e+00 1.9994e+00 7.7264e-04 2.2746e-04]
entropy correction =  -9.20594046811428e-05
cycle= 5 E= -26.9763496728691  delta_E= -0.0133  |g|= 0.0964  |ddm|= 0.956
HOMO:  -0.7688684719886848 LUMO:  -0.6933109787118873
Fermi energy:      -0.7311428927
[2.0000e+00 2.0000e+00 2.0000e+00 2.0000e+00 2.0000e+00 2.0000e+00
 2.0000e+00 1.9998e+00 1.9989e+00 1.0346e-03 2.4920e-04]
entropy correction =  -0.00011336344704824581
cycle= 6 E= -26.978578512755  delta_E= -0.00223  |g|= 0.0402  |ddm|= 0.383
HOMO:  -0.7681559716124455 LUMO:  -0.6927345037133666
Fermi energy:      -0.7304664934
[2.0000e+00 2.0000e+00 2.0000e+00 2.0000e+00 2.0000e+00 2.0000e+00
 2.0000e+00 1.9997e+00 1.9989e+00 1.0555e-03 2.6648e-04]
entropy correction =  -0.00011658824361195707
cycle= 7 E= -26.9789585056801  delta_E= -0.00038  |g|= 0.0153  |ddm|= 0.171
HOMO:  -0.7681460142096695 LUMO:  -0.6923770500647065
Fermi energy:      -0.7302314420
[2.0000e+00 2.0000e+00 2.0000e+00 2.0000e+00 2.0000e+00 2.0000e+00
 2.0000e+00 1.9997e+00 1.9990e+00 1.0299e-03 2.6021e-04]
entropy correction =  -0.0001142452767437291
cycle= 8 E= -26.9790435711957  delta_E= -8.51e-05  |g|= 0.00236  |ddm|= 0.077
HOMO:  -0.7682898354099545 LUMO:  -0.6925321349055068
Fermi energy:      -0.7303849263
[2.0000e+00 2.0000e+00 2.0000e+00 2.0000e+00 2.0000e+00 2.0000e+00
 2.0000e+00 1.9997e+00 1.9990e+00 1.0303e-03 2.5850e-04]
entropy correction =  -0.00011410698048479029
cycle= 9 E= -26.9790455448891  delta_E= -1.97e-06  |g|= 0.000404  |ddm|= 0.015
HOMO:  -0.7682820635513555 LUMO:  -0.6925447640208696
Fermi energy:      -0.7303890130
[2.0000e+00 2.0000e+00 2.0000e+00 2.0000e+00 2.0000e+00 2.0000e+00
 2.0000e+00 1.9997e+00 1.9990e+00 1.0320e-03 2.5906e-04]
entropy correction =  -0.00011428544709091635
cycle= 10 E= -26.9790456251844  delta_E= -8.03e-08  |g|= 6.85e-05  |ddm|= 0.00199
HOMO:  -0.7682845410267573 LUMO:  -0.6925486804795177
Fermi energy:      -0.7303924727
[2.0000e+00 2.0000e+00 2.0000e+00 2.0000e+00 2.0000e+00 2.0000e+00
 2.0000e+00 1.9997e+00 1.9990e+00 1.0321e-03 2.5907e-04]
entropy correction =  -0.00011429339695769214
cycle= 11 E= -26.9790456267196  delta_E= -1.54e-09  |g|= 6.62e-06  |ddm|= 0.000321
HOMO:  -0.7682843767498836 LUMO:  -0.6925485131894802
Fermi energy:      -0.7303922884
[2.0000e+00 2.0000e+00 2.0000e+00 2.0000e+00 2.0000e+00 2.0000e+00
 2.0000e+00 1.9997e+00 1.9990e+00 1.0321e-03 2.5906e-04]
entropy correction =  -0.00011429280835954099
cycle= 12 E= -26.9790456267362  delta_E= -1.67e-11  |g|= 1.08e-06  |ddm|= 3.7e-05
HOMO:  -0.7682843612189377 LUMO:  -0.6925483919056918
Fermi energy:      -0.7303922228
[2.0000e+00 2.0000e+00 2.0000e+00 2.0000e+00 2.0000e+00 2.0000e+00
 2.0000e+00 1.9997e+00 1.9990e+00 1.0321e-03 2.5906e-04]
entropy correction =  -0.00011429212106440757
Extra cycle  E= -26.9790456267364  delta_E= -1.78e-13  |g|= 1.18e-06  |ddm|= 1.06e-05
entropy correction =  -0.00011429212106440757
rks_ao.ne_frozen =  0
Set gradient conv threshold to 3.16228e-05
Initial guess from hcore.
HOMO:  -2.738567856537204 LUMO:  -2.7108570725575176
Fermi energy:      -2.7247124821
[2.     2.     2.     2.     2.     2.     2.     2.     1.8822 0.1178]
tot grids = 190200
init E= -26.8258201083408
HOMO:  -0.43153698050741074 LUMO:  -0.34333676394814006
Fermi energy:      -0.3874366473
[2.0000e+00 2.0000e+00 2.0000e+00 2.0000e+00 2.0000e+00 2.0000e+00
 2.0000e+00 2.0000e+00 1.9997e+00 2.9546e-04]
entropy correction =  -2.9015656094631633e-05
cycle= 1 E= -27.9297095729087  delta_E= -1.1  |g|= 1.29  |ddm|= 17.9
HOMO:  -0.5558152729479301 LUMO:  -0.5097122796839197
Fermi energy:      -0.5327636665
[2.     2.     2.     2.     2.     2.     2.     2.     1.9803 0.0197]
entropy correction =  -0.0011063681231399366
cycle= 2 E= -27.3069562524384  delta_E= 0.623  |g|= 1.87  |ddm|= 8.96
HOMO:  -0.4765868389708461 LUMO:  -0.45826692601910063
Fermi energy:      -0.4674270066
[2.    2.    2.    2.    2.    2.    2.    2.    1.724 0.276]
entropy correction =  -0.008027146214845569
cycle= 3 E= -28.3604158691857  delta_E= -1.05  |g|= 0.359  |ddm|= 5.07
HOMO:  -0.4853053105215714 LUMO:  -0.44129491324137593
Fermi energy:      -0.4633034633
[2.     2.     2.     2.     2.     2.     2.     2.     1.9758 0.0242]
entropy correction =  -0.0013122598532676435
cycle= 4 E= -28.3850854309449  delta_E= -0.0247  |g|= 0.264  |ddm|=  2.1
HOMO:  -0.4701518255767022 LUMO:  -0.4378148051368888
Fermi energy:      -0.4539851118
[2.     2.     2.     2.     2.     2.     2.     2.     1.9241 0.0758]
entropy correction =  -0.003228378104718781
cycle= 5 E= -28.413168262406  delta_E= -0.0281  |g|= 0.0656  |ddm|= 0.957
HOMO:  -0.4700804801683522 LUMO:  -0.447367341155417
Fermi energy:      -0.4587242401
[2.     2.     2.     2.     2.     2.     2.     2.     1.8129 0.187 ]
entropy correction =  -0.00621386368148822
cycle= 6 E= -28.413436279224  delta_E= -0.000268  |g|= 0.0594  |ddm|= 0.383
HOMO:  -0.4723673940459266 LUMO:  -0.4446696238989008
Fermi energy:      -0.4585192795
[2.     2.     2.     2.     2.     2.     2.     2.     1.882  0.1179]
entropy correction =  -0.004485071012103401
cycle= 7 E= -28.4148271656469  delta_E= -0.00139  |g|= 0.0068  |ddm|= 0.201
HOMO:  -0.4723816242411241 LUMO:  -0.44475258432117365
Fermi energy:      -0.4585678719
[2.     2.     2.     2.     2.     2.     2.     2.     1.8813 0.1187]
entropy correction =  -0.004506243879326419
cycle= 8 E= -28.4148427011675  delta_E= -1.55e-05  |g|= 0.00323  |ddm|= 0.0205
HOMO:  -0.47225821073830937 LUMO:  -0.44479921990355614
Fermi energy:      -0.4585294630
[2.     2.     2.     2.     2.     2.     2.     2.     1.8793 0.1206]
entropy correction =  -0.004558923294258848
cycle= 9 E= -28.4148463194593  delta_E= -3.62e-06  |g|= 0.00163  |ddm|= 0.00638
HOMO:  -0.47221398874198023 LUMO:  -0.4448440209881473
Fermi energy:      -0.4585297463
[2.     2.     2.     2.     2.     2.     2.     2.     1.8783 0.1216]
entropy correction =  -0.004586696681036907
cycle= 10 E= -28.4148475291286  delta_E= -1.21e-06  |g|= 0.00012  |ddm|= 0.00614
HOMO:  -0.4722180679474007 LUMO:  -0.44484841192427826
Fermi energy:      -0.4585339807
[2.     2.     2.     2.     2.     2.     2.     2.     1.8783 0.1216]
entropy correction =  -0.0045867924709627455
cycle= 11 E= -28.4148475349514  delta_E= -5.82e-09  |g|= 3.96e-05  |ddm|= 0.000723
HOMO:  -0.47221534664509085 LUMO:  -0.4448487876389187
Fermi energy:      -0.4585328076
[2.     2.     2.     2.     2.     2.     2.     2.     1.8783 0.1217]
entropy correction =  -0.0045877608030070426
cycle= 12 E= -28.4148475357892  delta_E= -8.38e-10  |g|= 8.1e-06  |ddm|= 0.000232
HOMO:  -0.472216663188909 LUMO:  -0.44484872990231367
Fermi energy:      -0.4585334371
[2.     2.     2.     2.     2.     2.     2.     2.     1.8783 0.1217]
entropy correction =  -0.0045873310118370045
Extra cycle  E= -28.4148475355252  delta_E= 2.64e-10  |g|= 2.59e-05  |ddm|= 0.000135
 Adding contributions from fluctuation of occupation numbers.
 Adding contributions from fluctuation of occupation numbers.
entropy correction =  -0.0045873310118370045
2-norm (grad),       max(grad):
155.04428268674525 ,  22.533726962831683
time of hessian construction : 14.260  (cpu),  0.358  (wall) 
time of hessian construction : 13.930  (cpu),  0.349  (wall) 
f =  12019.364796923688
|umat| =  2.7753025232484654
rks_ao.ne_frozen =  0
Set gradient conv threshold to 3.16228e-05
Initial guess from hcore.
HOMO:  -3.5042881396523984 LUMO:  -3.318776616149615
Fermi energy:      -3.4107673072
[2. 2. 2. 2. 2. 2. 2. 2. 2.]
tot grids = 190200
init E= -10.2490041345274
HOMO:  -0.08914606719776308 LUMO:  -0.08308808049906756
Fermi energy:      -0.0871191535
[2.     2.     2.     2.     2.     2.     1.9992 1.9638 1.2    0.6174
 0.2068 0.0128]
entropy correction =  -0.01756265203072282
cycle= 1 E= -10.1657035552234  delta_E= 0.0833  |g|= 2.86  |ddm|= 8.44
HOMO:  -0.8047901134370364 LUMO:  -0.6999331026189861
Fermi energy:      -0.7523606351
[2.     2.     2.     2.     2.     2.     2.     2.     1.9999]
entropy correction =  -6.41928431994637e-06
cycle= 2 E= -11.2887282091414  delta_E= -1.12  |g|= 2.42  |ddm|= 6.69
HOMO:  -0.46867239846447556 LUMO:  -0.4531821130745604
Fermi energy:      -0.4604675589
[2.0000e+00 2.0000e+00 2.0000e+00 2.0000e+00 2.0000e+00 1.9998e+00
 1.9931e+00 1.9330e+00 1.6753e+00 3.7783e-01 1.7909e-02 2.6065e-03
 4.4833e-04]
entropy correction =  -0.011622959377804418
cycle= 3 E= -12.7473221485873  delta_E= -1.46  |g|= 1.25  |ddm|= 4.79
HOMO:  -0.4179008441962078 LUMO:  -0.4160418544494855
Fermi energy:      -0.4169358401
[2.     2.     2.     2.     2.     1.9999 1.9988 1.9911 1.0962 0.9108
 0.0031]
entropy correction =  -0.01423416695068552
cycle= 4 E= -12.3972342392213  delta_E= 0.35  |g|= 1.48  |ddm|= 3.66
HOMO:  -0.41725010518900774 LUMO:  -0.3907438034714731
Fermi energy:      -0.4048616459
[2.0000e+00 2.0000e+00 2.0000e+00 2.0000e+00 1.9987e+00 1.9962e+00
 1.9939e+00 1.9832e+00 1.8451e+00 1.1213e-01 6.6615e-02 3.1134e-03
 9.5802e-04]
entropy correction =  -0.007393919874455506
cycle= 5 E= -13.4122666816005  delta_E= -1.02  |g|= 0.608  |ddm|= 2.24
HOMO:  -0.40110954809404925 LUMO:  -0.39386211543121497
Fermi energy:      -0.3969510897
[2.0000e+00 2.0000e+00 2.0000e+00 2.0000e+00 1.9998e+00 1.9906e+00
 1.9210e+00 1.8935e+00 1.3934e+00 7.0057e-01 9.2879e-02 7.1834e-03
 1.0487e-03]
entropy correction =  -0.01883014098232893
cycle= 6 E= -13.2002704015364  delta_E= 0.212  |g|= 0.822  |ddm|= 2.12
HOMO:  -0.39215661384385875 LUMO:  -0.37294212634692764
Fermi energy:      -0.3817554264
[2.0000e+00 2.0000e+00 2.0000e+00 1.9997e+00 1.9994e+00 1.9969e+00
 1.9866e+00 1.8344e+00 1.7779e+00 2.9292e-01 7.9429e-02 3.1889e-02
 9.0564e-04]
entropy correction =  -0.013601894261349192
cycle= 7 E= -13.2951362138769  delta_E= -0.0949  |g|= 0.71  |ddm|= 2.07
HOMO:  -0.38806699289024965 LUMO:  -0.3704560005819343
Fermi energy:      -0.3804890960
[2.     2.     1.9999 1.9998 1.9986 1.9965 1.9945 1.9462 1.6398 0.237
 0.1656 0.0173 0.0049]
entropy correction =  -0.01351110862264798
cycle= 8 E= -13.4308079521269  delta_E= -0.136  |g|= 0.547  |ddm|= 0.597
HOMO:  -0.3862992536455879 LUMO:  -0.3686966318488065
Fermi energy:      -0.3785954153
[2.     2.     1.9998 1.9998 1.9983 1.9969 1.9938 1.942  1.6472 0.2427
 0.156  0.0193 0.0041]
entropy correction =  -0.013514618466834154
cycle= 9 E= -13.3951530746642  delta_E= 0.0357  |g|= 0.593  |ddm|= 0.156
HOMO:  -0.3681460616505139 LUMO:  -0.3587204371182877
Fermi energy:      -0.3630905987
[2.0000e+00 2.0000e+00 1.9998e+00 1.9989e+00 1.9958e+00 1.9944e+00
 1.9668e+00 1.7639e+00 1.4665e+00 5.8883e-01 1.8735e-01 3.3961e-02
 3.5185e-03 1.2274e-04]
entropy correction =  -0.02083737417779925
cycle= 10 E= -13.499577797111  delta_E= -0.104  |g|= 0.404  |ddm|= 0.797
HOMO:  -0.37552425941148443 LUMO:  -0.36458935982717294
Fermi energy:      -0.3704322112
[2.0000e+00 2.0000e+00 1.9998e+00 1.9994e+00 1.9985e+00 1.9825e+00
 1.9641e+00 1.8738e+00 1.4693e+00 4.7423e-01 2.0863e-01 2.4367e-02
 5.2319e-03 1.2269e-04]
entropy correction =  -0.01930808250235441
cycle= 11 E= -13.604153117977  delta_E= -0.105  |g|= 0.162  |ddm|= 0.883
HOMO:  -0.38160501650364625 LUMO:  -0.3752826570301415
Fermi energy:      -0.3780201416
[2.0000e+00 2.0000e+00 1.9999e+00 1.9994e+00 1.9986e+00 1.9872e+00
 1.9312e+00 1.7991e+00 1.3439e+00 7.3289e-01 1.7991e-01 2.5371e-02
 2.2872e-03 2.3990e-04]
entropy correction =  -0.021939217807348626
cycle= 12 E= -13.5724227543674  delta_E= 0.0317  |g|= 0.255  |ddm|= 0.861
HOMO:  -0.38139356422452764 LUMO:  -0.3716585431772336
Fermi energy:      -0.3768091148
[2.0000e+00 2.0000e+00 1.9998e+00 1.9996e+00 1.9983e+00 1.9860e+00
 1.9570e+00 1.8171e+00 1.4288e+00 5.2612e-01 2.5221e-01 3.2076e-02
 2.9340e-03 1.7841e-04]
entropy correction =  -0.021090346723257207
cycle= 13 E= -13.6208211954316  delta_E= -0.0484  |g|= 0.0654  |ddm|= 0.641
HOMO:  -0.37967988243256745 LUMO:  -0.3708060940669827
Fermi energy:      -0.3753030322
[2.0000e+00 2.0000e+00 1.9997e+00 1.9996e+00 1.9980e+00 1.9843e+00
 1.9552e+00 1.8316e+00 1.4117e+00 5.7835e-01 2.0575e-01 3.1492e-02
 4.1008e-03 1.6999e-04]
entropy correction =  -0.020882850145705376
cycle= 14 E= -13.6222528360561  delta_E= -0.00143  |g|= 0.0437  |ddm|= 0.188
HOMO:  -0.37951614948632095 LUMO:  -0.3713839511770167
Fermi energy:      -0.3755797778
[2.0000e+00 2.0000e+00 1.9997e+00 1.9996e+00 1.9983e+00 1.9836e+00
 1.9592e+00 1.8181e+00 1.3745e+00 6.0342e-01 2.3049e-01 2.8816e-02
 4.0743e-03 1.5718e-04]
entropy correction =  -0.021437847049150673
cycle= 15 E= -13.6231803993653  delta_E= -0.000928  |g|= 0.0306  |ddm|= 0.154
HOMO:  -0.3798929445007421 LUMO:  -0.371173659781253
Fermi energy:      -0.3757506560
[2.0000e+00 2.0000e+00 1.9998e+00 1.9996e+00 1.9982e+00 1.9843e+00
 1.9557e+00 1.8312e+00 1.3921e+00 5.7179e-01 2.3142e-01 3.1745e-02
 4.0565e-03 1.7822e-04]
entropy correction =  -0.021197616764057556
cycle= 16 E= -13.6237266026853  delta_E= -0.000546  |g|= 0.0146  |ddm|= 0.0899
HOMO:  -0.379822048344622 LUMO:  -0.3716373957667778
Fermi energy:      -0.3758221111
[2.0000e+00 2.0000e+00 1.9997e+00 1.9996e+00 1.9983e+00 1.9844e+00
 1.9534e+00 1.8216e+00 1.3799e+00 6.0436e-01 2.2265e-01 3.2100e-02
 3.7916e-03 1.6837e-04]
entropy correction =  -0.021451167020927968
cycle= 17 E= -13.623812451528  delta_E= -8.58e-05  |g|= 0.0123  |ddm|= 0.0474
HOMO:  -0.38007529133443135 LUMO:  -0.3716359699859587
Fermi energy:      -0.3759608873
[2.0000e+00 2.0000e+00 1.9997e+00 1.9996e+00 1.9983e+00 1.9842e+00
 1.9549e+00 1.8238e+00 1.3897e+00 5.9260e-01 2.2235e-01 3.0768e-02
 3.8725e-03 1.6956e-04]
entropy correction =  -0.02128312648690395
cycle= 18 E= -13.6239009801754  delta_E= -8.85e-05  |g|= 0.00291  |ddm|= 0.0259
HOMO:  -0.3800022765775472 LUMO:  -0.37157805260919907
Fermi energy:      -0.3759123096
[2.0000e+00 2.0000e+00 1.9997e+00 1.9996e+00 1.9983e+00 1.9843e+00
 1.9550e+00 1.8247e+00 1.3876e+00 5.9182e-01 2.2385e-01 3.1035e-02
 3.9010e-03 1.7077e-04]
entropy correction =  -0.021296773434887752
cycle= 19 E= -13.6239072769336  delta_E= -6.3e-06  |g|= 0.000398  |ddm|= 0.00685
HOMO:  -0.37999942236537015 LUMO:  -0.3715708724500488
Fermi energy:      -0.3759045666
[2.0000e+00 2.0000e+00 1.9997e+00 1.9996e+00 1.9983e+00 1.9842e+00
 1.9550e+00 1.8242e+00 1.3880e+00 5.9187e-01 2.2406e-01 3.0968e-02
 3.8826e-03 1.7066e-04]
entropy correction =  -0.02130304164410527
cycle= 20 E= -13.6239072926259  delta_E= -1.57e-08  |g|= 0.000449  |ddm|= 0.00209
HOMO:  -0.3799961078455566 LUMO:  -0.37158023059668593
Fermi energy:      -0.3759073995
[2.0000e+00 2.0000e+00 1.9997e+00 1.9996e+00 1.9983e+00 1.9843e+00
 1.9550e+00 1.8243e+00 1.3875e+00 5.9241e-01 2.2387e-01 3.0997e-02
 3.8889e-03 1.7058e-04]
entropy correction =  -0.021304559244986494
cycle= 21 E= -13.6239074394605  delta_E= -1.47e-07  |g|= 0.000106  |ddm|= 0.00116
HOMO:  -0.3800024915219054 LUMO:  -0.37158066772572423
Fermi energy:      -0.3759102716
[2.0000e+00 2.0000e+00 1.9997e+00 1.9996e+00 1.9983e+00 1.9843e+00
 1.9549e+00 1.8244e+00 1.3878e+00 5.9221e-01 2.2372e-01 3.0976e-02
 3.8940e-03 1.7063e-04]
entropy correction =  -0.021300198471463503
cycle= 22 E= -13.6239073989605  delta_E= 4.05e-08  |g|= 0.000254  |ddm|= 0.000859
HOMO:  -0.38000123235733024 LUMO:  -0.371580850791798
Fermi energy:      -0.3759104170
[2.0000e+00 2.0000e+00 1.9997e+00 1.9996e+00 1.9983e+00 1.9843e+00
 1.9550e+00 1.8243e+00 1.3877e+00 5.9221e-01 2.2388e-01 3.0991e-02
 3.8894e-03 1.7064e-04]
entropy correction =  -0.021302756255727244
cycle= 23 E= -13.6239074495643  delta_E= -5.06e-08  |g|= 3.78e-05  |ddm|= 0.000646
HOMO:  -0.37999854960204665 LUMO:  -0.37157834061402334
Fermi energy:      -0.3759080366
[2.0000e+00 2.0000e+00 1.9997e+00 1.9996e+00 1.9983e+00 1.9843e+00
 1.9550e+00 1.8244e+00 1.3877e+00 5.9220e-01 2.2389e-01 3.0993e-02
 3.8904e-03 1.7062e-04]
entropy correction =  -0.021302781537555826
cycle= 24 E= -13.6239074505948  delta_E= -1.03e-09  |g|= 1.73e-05  |ddm|= 0.000102
HOMO:  -0.3799990449801599 LUMO:  -0.3715787790803456
Fermi energy:      -0.3759084579
[2.0000e+00 2.0000e+00 1.9997e+00 1.9996e+00 1.9983e+00 1.9843e+00
 1.9550e+00 1.8244e+00 1.3877e+00 5.9220e-01 2.2388e-01 3.0995e-02
 3.8902e-03 1.7064e-04]
entropy correction =  -0.02130269281141163
cycle= 25 E= -13.6239074505954  delta_E= -6.11e-13  |g|= 1.8e-05  |ddm|= 6.36e-05
HOMO:  -0.3799994885783221 LUMO:  -0.3715799647720508
Fermi energy:      -0.3759091511
[2.0000e+00 2.0000e+00 1.9997e+00 1.9996e+00 1.9983e+00 1.9843e+00
 1.9550e+00 1.8243e+00 1.3877e+00 5.9224e-01 2.2387e-01 3.0987e-02
 3.8911e-03 1.7057e-04]
entropy correction =  -0.02130264270610698
Extra cycle  E= -13.6239074390914  delta_E= 1.15e-08  |g|= 0.000131  |ddm|= 0.000281
entropy correction =  -0.02130264270610698
rks_ao.ne_frozen =  0
Set gradient conv threshold to 3.16228e-05
Initial guess from hcore.
HOMO:  -2.5908269194095257 LUMO:  -2.582504468001223
Fermi energy:      -2.5864814746
[2.0000e+00 2.0000e+00 2.0000e+00 2.0000e+00 2.0000e+00 2.0000e+00
 2.0000e+00 1.9579e+00 1.4091e+00 6.2202e-01 9.9062e-03 6.9542e-04
 3.3177e-04]
tot grids = 190200
init E= -9.82253520041547
HOMO:  -0.03505290918636088 LUMO:  -0.012319910168420307
Fermi energy:      -0.0241341700
[2.0000e+00 2.0000e+00 2.0000e+00 2.0000e+00 2.0000e+00 2.0000e+00
 1.9892e+00 1.9158e+00 1.7976e+00 1.7210e-01 1.2062e-01 4.5229e-03
 1.8334e-04]
entropy correction =  -0.010740429398652487
cycle= 1 E= -10.4176475492499  delta_E= -0.595  |g|= 2.34  |ddm|= 8.07
HOMO:  -0.5174909419308255 LUMO:  -0.4925473678139993
Fermi energy:      -0.5050203314
[2.0000e+00 2.0000e+00 2.0000e+00 2.0000e+00 2.0000e+00 2.0000e+00
 2.0000e+00 1.9984e+00 1.8475e+00 1.5248e-01 1.4039e-03 2.6555e-04]
entropy correction =  -0.005526977823732272
cycle= 2 E= -6.05375153021586  delta_E= 4.36  |g|= 2.86  |ddm|= 7.84
HOMO:  -0.34406743442827037 LUMO:  -0.33672088602182815
Fermi energy:      -0.3416698589
[2.0000e+00 2.0000e+00 2.0000e+00 2.0000e+00 2.0000e+00 1.9999e+00
 1.9993e+00 1.9944e+00 1.2353e+00 5.4191e-01 1.9386e-01 3.5210e-02
 1.2941e-04]
entropy correction =  -0.016801972538535496
cycle= 3 E= -11.2610716612739  delta_E= -5.21  |g|= 1.57  |ddm|= 3.84
HOMO:  -0.2685588495191807 LUMO:  -0.25640211147885283
Fermi energy:      -0.2632749431
[2.0000e+00 2.0000e+00 2.0000e+00 2.0000e+00 2.0000e+00 1.9997e+00
 1.9995e+00 1.9317e+00 1.4841e+00 4.0377e-01 1.5037e-01 2.3583e-02
 6.5192e-03 5.1893e-04]
entropy correction =  -0.015821856219956965
cycle= 4 E= -11.2475006560116  delta_E= 0.0136  |g|= 1.58  |ddm|= 2.87
HOMO:  -0.26933654778476496 LUMO:  -0.2591052457441729
Fermi energy:      -0.2644616137
[2.0000e+00 2.0000e+00 2.0000e+00 2.0000e+00 2.0000e+00 1.9997e+00
 1.9993e+00 1.8989e+00 1.4522e+00 5.1032e-01 1.2093e-01 1.4174e-02
 4.0458e-03 2.5076e-04]
entropy correction =  -0.01645934002927059
cycle= 5 E= -11.2993422515309  delta_E= -0.0518  |g|= 1.56  |ddm|= 0.665
HOMO:  -0.2638876402920967 LUMO:  -0.2529384028425396
Fermi energy:      -0.2585657893
[2.0000e+00 2.0000e+00 2.0000e+00 2.0000e+00 2.0000e+00 1.9997e+00
 1.9979e+00 1.8865e+00 1.4870e+00 4.8999e-01 9.5298e-02 3.6544e-02
 6.3348e-03 5.1442e-04]
entropy correction =  -0.01660341293286663
cycle= 6 E= -11.5748808730497  delta_E= -0.276  |g|= 1.41  |ddm|= 0.462
HOMO:  -0.2488884954530375 LUMO:  -0.23886873966053934
Fermi energy:      -0.2441435557
[2.0000e+00 2.0000e+00 2.0000e+00 2.0000e+00 2.0000e+00 1.9991e+00
 1.9834e+00 1.9311e+00 1.4418e+00 5.1655e-01 6.1425e-02 5.1027e-02
 1.2045e-02 3.1274e-03 5.0256e-04]
entropy correction =  -0.01672595340431335
cycle= 7 E= -12.4833052346853  delta_E= -0.908  |g|= 0.874  |ddm|=  1.6
HOMO:  -0.2530069709283757 LUMO:  -0.24739410417218816
Fermi energy:      -0.2503691418
[2.0000e+00 2.0000e+00 2.0000e+00 2.0000e+00 1.9999e+00 1.9925e+00
 1.9628e+00 1.7844e+00 1.2578e+00 7.1097e-01 1.4621e-01 7.8343e-02
 4.7502e-02 1.6606e-02 2.8331e-03 1.2466e-04]
entropy correction =  -0.023687354521190414
cycle= 8 E= -12.6859818447274  delta_E= -0.203  |g|= 0.674  |ddm|= 1.42
HOMO:  -0.23317235534230096 LUMO:  -0.2278445323271327
Fermi energy:      -0.2298708244
[2.0000e+00 2.0000e+00 2.0000e+00 2.0000e+00 2.0000e+00 1.9978e+00
 1.9700e+00 1.8652e+00 1.3187e+00 8.0010e-01 3.6454e-02 6.2416e-03
 4.8571e-03 6.3722e-04 1.3059e-04]
entropy correction =  -0.01781434263424941
cycle= 9 E= -12.6383699651286  delta_E= 0.0476  |g|= 0.731  |ddm|= 1.97
HOMO:  -0.2051507566962223 LUMO:  -0.19501694952752
Fermi energy:      -0.2016766590
[2.0000e+00 2.0000e+00 2.0000e+00 2.0000e+00 1.9996e+00 1.9926e+00
 1.9896e+00 1.9491e+00 1.3341e+00 4.1768e-01 3.0709e-01 7.2500e-03
 2.4864e-03 3.4530e-04 1.5966e-04]
entropy correction =  -0.017919639168913617
cycle= 10 E= -11.6813398479612  delta_E= 0.957  |g|= 1.35  |ddm|= 2.89
HOMO:  -0.20043580577765252 LUMO:  -0.199723267082661
Fermi energy:      -0.2006668446
[2.0000e+00 2.0000e+00 2.0000e+00 2.0000e+00 1.9993e+00 1.9986e+00
 1.9810e+00 1.8609e+00 9.7690e-01 9.0592e-01 1.9066e-01 4.9613e-02
 3.2365e-02 3.2066e-03 1.1294e-03 3.3680e-04]
entropy correction =  -0.022286475189228078
cycle= 11 E= -12.88231603653  delta_E= -1.2  |g|= 0.405  |ddm|=    2
HOMO:  -0.23092938997078097 LUMO:  -0.22913910471863883
Fermi energy:      -0.2301612320
[2.0000e+00 2.0000e+00 2.0000e+00 2.0000e+00 1.9991e+00 1.9961e+00
 1.9340e+00 1.8967e+00 1.0767e+00 8.9814e-01 1.2954e-01 4.6099e-02
 1.8574e-02 3.8436e-03 1.0478e-03 1.4530e-04]
entropy correction =  -0.021658465851292254
cycle= 12 E= -12.9231660026395  delta_E= -0.0408  |g|= 0.304  |ddm|= 1.36
HOMO:  -0.22440734104781052 LUMO:  -0.2225920098020692
Fermi energy:      -0.2247626086
[2.0000e+00 2.0000e+00 2.0000e+00 2.0000e+00 1.9992e+00 1.9877e+00
 1.9371e+00 1.8905e+00 9.6449e-01 7.8629e-01 2.7049e-01 9.9362e-02
 5.7478e-02 5.5090e-03 1.8271e-03 1.2963e-04]
entropy correction =  -0.02506973771599766
cycle= 13 E= -12.9761353947165  delta_E= -0.053  |g|= 0.0967  |ddm|= 0.768
HOMO:  -0.22358117779377432 LUMO:  -0.221061544571311
Fermi energy:      -0.2228446616
[2.0000e+00 2.0000e+00 2.0000e+00 2.0000e+00 1.9990e+00 1.9926e+00
[...]
cycle= 6 E= -13.4014686306129  delta_E= -0.05  |g|= 0.0488  |ddm|= 0.423
HOMO:  -0.3669138094935238 LUMO:  -0.3662528968533609
Fermi energy:      -0.3672148328
[2.0000e+00 1.9992e+00 1.9893e+00 1.9869e+00 1.9717e+00 1.9544e+00
 1.9483e+00 1.0676e+00 9.6991e-01 9.0410e-01 5.7391e-01 5.3992e-01
 9.4539e-02 2.2089e-04]
entropy correction =  -0.03825643671074012
cycle= 7 E= -13.3994991303126  delta_E= 0.00197  |g|= 0.0628  |ddm|= 0.267
HOMO:  -0.3685279450007604 LUMO:  -0.3661985213653933
Fermi energy:      -0.3679656844
[2.0000e+00 1.9990e+00 1.9896e+00 1.9883e+00 1.9607e+00 1.9604e+00
 1.9434e+00 1.0631e+00 1.0562e+00 8.2510e-01 5.6275e-01 5.5953e-01
 9.1740e-02 2.3364e-04]
entropy correction =  -0.03830397151212149
cycle= 8 E= -13.4032159448894  delta_E= -0.00372  |g|= 0.0224  |ddm|= 0.175
HOMO:  -0.36788127083731287 LUMO:  -0.36587631886904226
Fermi energy:      -0.3674734266
[2.0000e+00 1.9989e+00 1.9890e+00 1.9873e+00 1.9612e+00 1.9608e+00
 1.9420e+00 1.0430e+00 1.0408e+00 8.4163e-01 5.7196e-01 5.7000e-01
 9.3278e-02 2.3333e-04]
entropy correction =  -0.03851664733762227
cycle= 9 E= -13.402985915993  delta_E= 0.00023  |g|= 0.0302  |ddm|= 0.0583
HOMO:  -0.3666191384944296 LUMO:  -0.3652825802680365
Fermi energy:      -0.3665655180
[2.0000e+00 1.9988e+00 1.9876e+00 1.9853e+00 1.9619e+00 1.9616e+00
 1.9395e+00 1.0136e+00 1.0054e+00 8.7241e-01 5.8958e-01 5.8825e-01
 9.6012e-02 2.3308e-04]
entropy correction =  -0.03888392932117383
cycle= 10 E= -13.4036550214433  delta_E= -0.000669  |g|= 0.0033  |ddm|= 0.06
HOMO:  -0.36631919558004244 LUMO:  -0.3651349765594144
Fermi energy:      -0.3663536428
[2.0000e+00 1.9988e+00 1.9870e+00 1.9855e+00 1.9621e+00 1.9621e+00
 1.9394e+00 1.0068e+00 9.9656e-01 8.7873e-01 5.9421e-01 5.9133e-01
 9.7184e-02 2.3259e-04]
entropy correction =  -0.03893812179889934
cycle= 11 E= -13.4036202600949  delta_E= 3.48e-05  |g|= 0.00782  |ddm|= 0.0248
HOMO:  -0.3663698164704981 LUMO:  -0.3651157019000156
Fermi energy:      -0.3663782206
[2.0000e+00 1.9988e+00 1.9871e+00 1.9857e+00 1.9622e+00 1.9619e+00
 1.9399e+00 1.0109e+00 9.9916e-01 8.7441e-01 5.9307e-01 5.8974e-01
 9.6833e-02 2.3333e-04]
entropy correction =  -0.03890106448018269
cycle= 12 E= -13.4036185488942  delta_E= 1.71e-06  |g|= 0.00793  |ddm|= 0.0249
HOMO:  -0.36648897529364466 LUMO:  -0.3651494348078408
Fermi energy:      -0.3664263540
[2.0000e+00 1.9988e+00 1.9874e+00 1.9856e+00 1.9622e+00 1.9618e+00
 1.9400e+00 1.0066e+00 1.0063e+00 8.7300e-01 5.9124e-01 5.9010e-01
 9.6729e-02 2.3333e-04]
entropy correction =  -0.038887429489251224
cycle= 13 E= -13.4036673544483  delta_E= -4.88e-05  |g|= 0.000494  |ddm|= 0.0167
HOMO:  -0.3664678876077826 LUMO:  -0.3651452237273515
Fermi energy:      -0.3664191844
[2.0000e+00 1.9988e+00 1.9874e+00 1.9855e+00 1.9621e+00 1.9620e+00
 1.9401e+00 1.0071e+00 1.0049e+00 8.7329e-01 5.9139e-01 5.9045e-01
 9.6754e-02 2.3327e-04]
entropy correction =  -0.03888987234239823
cycle= 14 E= -13.4036656630099  delta_E= 1.69e-06  |g|= 0.00152  |ddm|= 0.00419
HOMO:  -0.3664673092686354 LUMO:  -0.3651484773693409
Fermi energy:      -0.3664217040
[2.0000e+00 1.9988e+00 1.9874e+00 1.9855e+00 1.9621e+00 1.9620e+00
 1.9400e+00 1.0073e+00 1.0046e+00 8.7336e-01 5.9141e-01 5.9047e-01
 9.6759e-02 2.3329e-04]
entropy correction =  -0.03889047844309687
cycle= 15 E= -13.4036602987109  delta_E= 5.36e-06  |g|= 0.0031  |ddm|= 0.00586
HOMO:  -0.3664955265618895 LUMO:  -0.3651614600364705
Fermi energy:      -0.3664361418
[2.0000e+00 1.9988e+00 1.9874e+00 1.9856e+00 1.9622e+00 1.9619e+00
 1.9400e+00 1.0067e+00 1.0059e+00 8.7322e-01 5.9091e-01 5.9045e-01
 9.6751e-02 2.3343e-04]
entropy correction =  -0.03888961216197534
cycle= 16 E= -13.4036674940305  delta_E= -7.2e-06  |g|= 0.000337  |ddm|= 0.00533
HOMO:  -0.36650605112240275 LUMO:  -0.3651681688273011
Fermi energy:      -0.3664446388
[2.0000e+00 1.9988e+00 1.9874e+00 1.9856e+00 1.9622e+00 1.9619e+00
 1.9400e+00 1.0070e+00 1.0061e+00 8.7304e-01 5.9091e-01 5.9013e-01
 9.6736e-02 2.3345e-04]
entropy correction =  -0.038887507334166765
cycle= 17 E= -13.4036675878001  delta_E= -9.38e-08  |g|= 0.000193  |ddm|= 0.00109
HOMO:  -0.36650676804774346 LUMO:  -0.36516871795218053
Fermi energy:      -0.3664450949
[2.0000e+00 1.9988e+00 1.9874e+00 1.9856e+00 1.9622e+00 1.9619e+00
 1.9399e+00 1.0070e+00 1.0062e+00 8.7305e-01 5.9093e-01 5.9010e-01
 9.6736e-02 2.3349e-04]
entropy correction =  -0.03888810603661935
cycle= 18 E= -13.403667432809  delta_E= 1.55e-07  |g|= 0.000503  |ddm|= 0.000965
HOMO:  -0.36649817675002905 LUMO:  -0.3651623525398045
Fermi energy:      -0.3664378974
[2.0000e+00 1.9988e+00 1.9874e+00 1.9855e+00 1.9622e+00 1.9619e+00
 1.9400e+00 1.0068e+00 1.0060e+00 8.7313e-01 5.9104e-01 5.9028e-01
 9.6739e-02 2.3346e-04]
entropy correction =  -0.03888938306935665
cycle= 19 E= -13.4036676131763  delta_E= -1.8e-07  |g|= 6.22e-05  |ddm|= 0.00082
HOMO:  -0.3664997726641317 LUMO:  -0.36516304112328407
Fermi energy:      -0.3664391737
[2.0000e+00 1.9988e+00 1.9874e+00 1.9856e+00 1.9622e+00 1.9619e+00
 1.9400e+00 1.0069e+00 1.0061e+00 8.7307e-01 5.9101e-01 5.9025e-01
 9.6735e-02 2.3344e-04]
entropy correction =  -0.03888843764378147
cycle= 20 E= -13.4036676170808  delta_E= -3.9e-09  |g|= 8.33e-06  |ddm|= 0.000186
HOMO:  -0.3664986649855953 LUMO:  -0.365162202187033
Fermi energy:      -0.3664382259
[2.0000e+00 1.9988e+00 1.9874e+00 1.9856e+00 1.9622e+00 1.9619e+00
 1.9400e+00 1.0068e+00 1.0060e+00 8.7309e-01 5.9102e-01 5.9026e-01
 9.6737e-02 2.3344e-04]
entropy correction =  -0.038888571163818664
cycle= 21 E= -13.4036676166196  delta_E= 4.61e-10  |g|= 2.69e-05  |ddm|= 7.35e-05
HOMO:  -0.3664991043113101 LUMO:  -0.36516262320796006
Fermi energy:      -0.3664386720
[2.0000e+00 1.9988e+00 1.9874e+00 1.9856e+00 1.9622e+00 1.9619e+00
 1.9400e+00 1.0069e+00 1.0060e+00 8.7308e-01 5.9101e-01 5.9026e-01
 9.6736e-02 2.3344e-04]
entropy correction =  -0.038888572707256416
Extra cycle  E= -13.4036675717848  delta_E= 4.48e-08  |g|= 0.000262  |ddm|= 0.000498
entropy correction =  -0.038888572707256416
rks_ao.ne_frozen =  0
Set gradient conv threshold to 3.16228e-05
tot grids = 190200
init E= -9.12169471456116
HOMO:  -0.18203733173013845 LUMO:  -0.1711575241404111
Fermi energy:      -0.1750221734
[2.0000e+00 2.0000e+00 2.0000e+00 2.0000e+00 1.9147e+00 1.8508e+00
 1.8499e+00 1.6062e+00 1.6053e+00 6.3169e-01 4.0260e-01 5.8215e-02
 5.6845e-02 1.1582e-02 1.1391e-02 8.3123e-04]
entropy correction =  -0.03162204820446964
cycle= 1 E= -12.4375878330449  delta_E= -3.32  |g|= 0.773  |ddm|= 5.23
HOMO:  -0.13313221592928517 LUMO:  -0.1299786198729077
Fermi energy:      -0.1291120898
[2.0000e+00 2.0000e+00 2.0000e+00 2.0000e+00 2.0000e+00 2.0000e+00
 1.9817e+00 1.3941e+00 1.3817e+00 1.0864e+00 4.8322e-02 4.5807e-02
 3.6259e-02 1.2500e-02 1.0788e-02 1.0414e-03 5.7740e-04 5.0884e-04
 2.9288e-04]
entropy correction =  -0.023693075503577587
cycle= 2 E= -12.3597138412775  delta_E= 0.0779  |g|= 0.987  |ddm|=  2.9
HOMO:  -0.2179457085275609 LUMO:  -0.20957785863596842
Fermi energy:      -0.2147406038
[2.0000e+00 2.0000e+00 2.0000e+00 2.0000e+00 1.9883e+00 1.9880e+00
 1.9670e+00 1.3120e+00 1.3100e+00 5.2518e-01 3.8958e-01 3.8648e-01
 1.0127e-01 1.5696e-02 1.5518e-02 1.0493e-03]
entropy correction =  -0.03300591596304883
cycle= 3 E= -12.748474353634  delta_E= -0.389  |g|= 0.228  |ddm|= 1.38
HOMO:  -0.21849584918448292 LUMO:  -0.21368296802441775
Fermi energy:      -0.2162409949
[2.0000e+00 2.0000e+00 2.0000e+00 2.0000e+00 1.9291e+00 1.8245e+00
 1.8167e+00 1.2246e+00 1.2217e+00 7.4963e-01 7.4805e-01 3.5693e-01
 9.7011e-02 1.5638e-02 1.5267e-02 8.2886e-04]
entropy correction =  -0.041728254350044444
cycle= 4 E= -12.7741435640983  delta_E= -0.0257  |g|= 0.0653  |ddm|= 0.534
HOMO:  -0.21873923180687813 LUMO:  -0.21396372336993302
Fermi energy:      -0.2163316876
[2.0000e+00 2.0000e+00 2.0000e+00 2.0000e+00 1.9363e+00 1.8040e+00
 1.7963e+00 1.2424e+00 1.2362e+00 7.6753e-01 7.1299e-01 3.8301e-01
 9.2926e-02 1.4293e-02 1.3294e-02 7.8272e-04]
entropy correction =  -0.04198885839733829
cycle= 5 E= -12.7557388072917  delta_E= 0.0184  |g|= 0.17  |ddm|= 0.344
HOMO:  -0.21836520541476034 LUMO:  -0.2135805673915478
Fermi energy:      -0.2160996650
[2.0000e+00 2.0000e+00 2.0000e+00 2.0000e+00 1.9333e+00 1.8097e+00
 1.8067e+00 1.2254e+00 1.2228e+00 7.5329e-01 7.4470e-01 3.8253e-01
 9.0160e-02 1.5661e-02 1.5087e-02 7.6560e-04]
entropy correction =  -0.042018378706162006
cycle= 6 E= -12.7776504877568  delta_E= -0.0219  |g|= 0.0119  |ddm|= 0.265
HOMO:  -0.21815659266668158 LUMO:  -0.2132087528630548
Fermi energy:      -0.2157918902
[2.0000e+00 2.0000e+00 2.0000e+00 2.0000e+00 1.9310e+00 1.8071e+00
 1.8037e+00 1.2376e+00 1.2322e+00 7.4728e-01 7.4360e-01 3.7530e-01
 8.9873e-02 1.5944e-02 1.5597e-02 8.1053e-04]
entropy correction =  -0.042013892082273276
cycle= 7 E= -12.7778460928231  delta_E= -0.000196  |g|= 0.00723  |ddm|= 0.0507
HOMO:  -0.21827411451554207 LUMO:  -0.21331242208007037
Fermi energy:      -0.2158878431
[2.0000e+00 2.0000e+00 2.0000e+00 2.0000e+00 1.9310e+00 1.8072e+00
 1.8022e+00 1.2350e+00 1.2342e+00 7.4800e-01 7.4626e-01 3.7414e-01
 8.9720e-02 1.5880e-02 1.5606e-02 8.0731e-04]
entropy correction =  -0.042027486321793185
cycle= 8 E= -12.7778512257037  delta_E= -5.13e-06  |g|= 0.00721  |ddm|= 0.028
HOMO:  -0.21840381272084528 LUMO:  -0.21350446176296062
Fermi energy:      -0.2160285624
[2.0000e+00 2.0000e+00 2.0000e+00 2.0000e+00 1.9311e+00 1.8051e+00
 1.8024e+00 1.2341e+00 1.2332e+00 7.5282e-01 7.4692e-01 3.7275e-01
 8.9495e-02 1.5883e-02 1.5496e-02 8.0102e-04]
entropy correction =  -0.04204905106959669
cycle= 9 E= -12.7778776189534  delta_E= -2.64e-05  |g|= 0.00379  |ddm|= 0.019
HOMO:  -0.21843752405621 LUMO:  -0.21353748147149984
Fermi energy:      -0.2160636409
[2.0000e+00 2.0000e+00 2.0000e+00 2.0000e+00 1.9312e+00 1.8043e+00
 1.8017e+00 1.2339e+00 1.2330e+00 7.5262e-01 7.4930e-01 3.7241e-01
 8.9410e-02 1.5819e-02 1.5534e-02 7.9904e-04]
entropy correction =  -0.04206687778820431
cycle= 10 E= -12.7778826558936  delta_E= -5.04e-06  |g|= 0.00309  |ddm|= 0.00911
HOMO:  -0.2184302805523844 LUMO:  -0.21352268436727134
Fermi energy:      -0.2160626671
[2.0000e+00 2.0000e+00 2.0000e+00 2.0000e+00 1.9312e+00 1.8039e+00
 1.8021e+00 1.2342e+00 1.2324e+00 7.5133e-01 7.5105e-01 3.7231e-01
 8.9398e-02 1.5785e-02 1.5554e-02 7.9856e-04]
entropy correction =  -0.042067340455127854
cycle= 11 E= -12.7778896547338  delta_E= -7e-06  |g|= 0.000697  |ddm|= 0.0059
HOMO:  -0.2184053570680264 LUMO:  -0.21349249389381858
Fermi energy:      -0.2160338517
[2.0000e+00 2.0000e+00 2.0000e+00 2.0000e+00 1.9312e+00 1.8048e+00
 1.8019e+00 1.2340e+00 1.2328e+00 7.5120e-01 7.5008e-01 3.7247e-01
 8.9373e-02 1.5790e-02 1.5555e-02 7.9914e-04]
entropy correction =  -0.04205658898744602
cycle= 12 E= -12.7778890324705  delta_E= 6.22e-07  |g|= 0.00113  |ddm|= 0.00357
HOMO:  -0.21839896426366656 LUMO:  -0.21348376820206605
Fermi energy:      -0.2160280345
[2.0000e+00 2.0000e+00 2.0000e+00 2.0000e+00 1.9312e+00 1.8043e+00
 1.8025e+00 1.2341e+00 1.2327e+00 7.5092e-01 7.5014e-01 3.7250e-01
 8.9377e-02 1.5795e-02 1.5551e-02 7.9937e-04]
entropy correction =  -0.04205458377701211
cycle= 13 E= -12.777890052116  delta_E= -1.02e-06  |g|= 6.37e-05  |ddm|= 0.0026
HOMO:  -0.21839945964265517 LUMO:  -0.21348376642111563
Fermi energy:      -0.2160282139
[2.0000e+00 2.0000e+00 2.0000e+00 2.0000e+00 1.9312e+00 1.8043e+00
 1.8025e+00 1.2341e+00 1.2328e+00 7.5091e-01 7.5022e-01 3.7248e-01
 8.9363e-02 1.5796e-02 1.5551e-02 7.9927e-04]
entropy correction =  -0.04205540546993986
cycle= 14 E= -12.777890054869  delta_E= -2.75e-09  |g|= 2.73e-05  |ddm|= 0.000253
HOMO:  -0.2184003417819787 LUMO:  -0.2134850266817287
Fermi energy:      -0.2160290724
[2.0000e+00 2.0000e+00 2.0000e+00 2.0000e+00 1.9312e+00 1.8043e+00
 1.8025e+00 1.2341e+00 1.2328e+00 7.5095e-01 7.5022e-01 3.7248e-01
 8.9362e-02 1.5795e-02 1.5551e-02 7.9924e-04]
entropy correction =  -0.04205565839493947
cycle= 15 E= -12.7778900559352  delta_E= -1.07e-09  |g|= 1.91e-05  |ddm|= 0.000139
HOMO:  -0.21840138825897118 LUMO:  -0.21348624540040273
Fermi energy:      -0.2160300800
[2.0000e+00 2.0000e+00 2.0000e+00 2.0000e+00 1.9312e+00 1.8043e+00
 1.8025e+00 1.2341e+00 1.2328e+00 7.5097e-01 7.5024e-01 3.7247e-01
 8.9362e-02 1.5796e-02 1.5551e-02 7.9920e-04]
entropy correction =  -0.04205601080529057
cycle= 16 E= -12.7778900533242  delta_E= 2.61e-09  |g|= 6.08e-05  |ddm|= 0.00013
HOMO:  -0.21840078712833935 LUMO:  -0.2134853902619265
Fermi energy:      -0.2160295726
[2.0000e+00 2.0000e+00 2.0000e+00 2.0000e+00 1.9312e+00 1.8043e+00
 1.8025e+00 1.2341e+00 1.2328e+00 7.5093e-01 7.5025e-01 3.7247e-01
 8.9363e-02 1.5796e-02 1.5551e-02 7.9922e-04]
entropy correction =  -0.042055650791402395
cycle= 17 E= -12.7778900557218  delta_E= -2.4e-09  |g|= 2.51e-05  |ddm|= 0.000109
HOMO:  -0.2184007584386871 LUMO:  -0.21348548963678757
Fermi energy:      -0.2160295659
[2.0000e+00 2.0000e+00 2.0000e+00 2.0000e+00 1.9312e+00 1.8043e+00
 1.8025e+00 1.2341e+00 1.2328e+00 7.5094e-01 7.5024e-01 3.7247e-01
 8.9363e-02 1.5795e-02 1.5551e-02 7.9923e-04]
entropy correction =  -0.04205562312367024
cycle= 18 E= -12.7778900560937  delta_E= -3.72e-10  |g|= 1.37e-05  |ddm|= 6.35e-05
HOMO:  -0.21840084860811101 LUMO:  -0.21348550527751856
Fermi energy:      -0.2160295731
[2.0000e+00 2.0000e+00 2.0000e+00 2.0000e+00 1.9312e+00 1.8043e+00
 1.8025e+00 1.2341e+00 1.2328e+00 7.5094e-01 7.5024e-01 3.7247e-01
 8.9363e-02 1.5795e-02 1.5551e-02 7.9922e-04]
entropy correction =  -0.04205567629056918
Extra cycle  E= -12.7778900497878  delta_E= 6.31e-09  |g|= 9.36e-05  |ddm|= 0.000198
entropy correction =  -0.04205567629056918
scf energies:
EA (no vemb contrib.) =  -34.78924674867261
EB (no vemb contrib.) =  -24.950133109612363
W =  -59.636210180499546
P_imp change (scf - non-scf):  0.006106223071268276
P_bath change (scf - non-scf):  0.005960864036446528
|P_frag + P_env - P_ref| =  0.06800611413702148
max element of (P_frag + P_env - P_ref) =  0.0033657520560666718
mo orthogonality:
[[-4.7167e-06  2.6739e-06 -1.4901e-05  1.5234e-02 -1.6738e-06 -4.9270e-05
  -2.9449e-05 -2.6972e-06  1.3972e-05 -7.7004e-05  1.5444e-05 -5.4224e-05
   3.2496e-01  1.1883e-04 -1.1904e-04  4.5588e-01 -8.6680e-05  8.6123e-04
   1.6439e-04]
 [ 1.5933e-05 -1.8028e-05  8.2768e-03 -1.3811e-05  3.3372e-06 -7.1834e-06
   3.0907e-06  2.8248e-04 -2.1409e-04  7.0746e-06 -1.6797e-05 -2.4822e-01
   2.4579e-04  1.2901e-04  4.5124e-06 -2.2874e-04 -1.2224e-03 -8.7485e-03
  -9.7410e-03]
 [ 3.1445e-04  1.0421e-03  6.5915e-05  3.5720e-05  2.4277e-05 -2.5877e-07
   3.5314e-05  6.4310e-03  1.9691e-02  3.3778e-05 -2.1435e-05 -2.2770e-03
   4.9956e-05  3.8792e-04 -1.8263e-04 -5.8106e-04  1.6023e-02  6.8592e-01
  -1.1497e-01]
 [-6.2261e-04  2.6114e-04  4.1989e-05  2.6692e-06 -6.5599e-06 -2.6647e-05
   1.5805e-05 -2.0279e-02  6.0153e-03  1.5865e-05 -1.3873e-05 -1.9529e-03
   1.1983e-05  4.8848e-05 -5.5066e-04 -3.8550e-04  1.4669e-02  9.6927e-02
   7.9574e-01]
 [-3.3743e-06 -4.1447e-06  8.2253e-06 -2.6267e-05 -1.7871e-05  2.0864e-02
  -6.4065e-03  8.4771e-05 -7.1699e-05 -5.9021e-02 -4.1352e-02 -1.9640e-04
  -3.0512e-04 -3.2786e-01  8.6987e-01  3.3788e-04 -3.5204e-04 -2.0673e-04
  -6.4419e-04]
 [-3.5346e-06 -3.6273e-06  7.7664e-06 -1.3856e-05  1.9243e-05  6.5014e-03
   2.0871e-02  8.1622e-05 -4.6617e-05 -4.1516e-02  5.8829e-02  1.3406e-04
   1.8737e-04  8.7011e-01  3.2721e-01 -4.8807e-04 -1.5732e-03 -6.2359e-04
   2.6918e-04]
 [ 5.6505e-06  3.3813e-06  1.9291e-05  6.2550e-03 -3.2864e-06 -4.6862e-05
  -1.1780e-04 -1.5677e-05  2.4901e-05 -6.1765e-05 -3.9023e-05  1.7680e-05
   7.6054e-01 -5.4701e-04  2.0741e-04 -5.3211e-01  3.1443e-04 -4.2358e-04
  -1.9966e-04]
 [ 3.9603e-05 -2.7381e-05 -1.7494e-06 -1.7108e-04  1.0345e-04  1.9617e-01
  -2.8308e-02 -6.6374e-04  7.0125e-04  8.6642e-01  4.2577e-01  5.1781e-05
   7.8786e-05 -1.4362e-02  7.0954e-02 -4.3416e-05  4.2284e-04 -1.0074e-04
  -1.5721e-05]
 [ 6.0021e-06  2.3777e-05 -3.6304e-05 -2.6934e-05  9.9952e-05  2.8418e-02
   1.9541e-01 -7.7222e-04 -6.3351e-04  4.2575e-01 -8.6663e-01 -2.6572e-04
   1.5473e-05  7.0718e-02  1.4913e-02 -1.0825e-04  4.7645e-05 -2.5504e-04
   1.0311e-04]
 [-4.2463e-05  1.1782e-04  5.7843e-02  1.4948e-04  1.4589e-06 -8.1583e-06
   7.8924e-05 -2.7278e-04 -1.8857e-05  6.7605e-05 -2.9835e-04  9.3725e-01
   9.6362e-05 -1.4144e-04  1.4999e-04  3.0685e-06 -2.1479e-04 -3.4713e-04
  -1.1414e-03]
 [-1.9506e-03 -3.1855e-02  6.6395e-05  3.9358e-05 -2.4333e-05  2.8974e-05
   6.5916e-05  3.1423e-02  9.7275e-01 -3.4436e-04 -8.9824e-04  5.1663e-05
  -3.0520e-05  8.3936e-05  6.6507e-05  4.2742e-05 -4.3809e-04 -1.6894e-03
  -1.4609e-03]
 [-3.0589e-02  2.1536e-03 -3.6925e-05  6.8000e-05  1.0299e-04  1.0300e-04
   5.3196e-05  9.7236e-01 -3.1556e-02  9.6071e-04 -3.7695e-04  3.1841e-04
   3.7546e-05  1.1371e-05 -1.3726e-04 -1.0232e-05  9.4744e-04 -2.5171e-04
   1.5203e-02]
 [ 1.1128e-04 -2.8603e-04  6.9102e-04 -7.7244e-01 -1.2867e-04 -1.6783e-04
   1.4325e-04  8.3001e-05 -6.8838e-06 -1.2158e-04  5.3894e-05  1.0327e-04
  -2.8253e-01 -2.1275e-04 -1.8754e-04 -3.2219e-01  2.1261e-04 -1.0938e-04
  -1.4384e-05]
 [ 2.2997e-03 -4.0171e-04  1.5980e-05  1.7253e-04 -9.5822e-01  1.5604e-04
   3.9832e-04  3.7059e-04 -9.7395e-05  8.3433e-05  1.8043e-05 -8.8999e-07
  -2.4285e-05 -4.7709e-05 -1.5526e-04 -1.9461e-05 -1.7199e-04 -2.7771e-04
   5.8079e-05]]
|P_imp-P_imp_0| =  0.006106223071268276
max(P_imp-P_imp_0) =  0.00041283857845984817
|P_bath-P_bath_0| =  0.005960864036446528
max(P_bath-P_bath_0) =  0.00041878278725032605

At iterate   54    f=   1.177421416955E-03    |proj g|=  1.886702214E-03

At iterate   55    f=   1.177391433362E-03    |proj g|=  2.851417837E-03

At iterate   56    f=   1.177335973294E-03    |proj g|=  2.251610286E-03

At iterate   57    f=   1.177175677337E-03    |proj g|=  1.599298169E-03

At iterate   58    f=   1.176992719671E-03    |proj g|=  1.739361648E-03

At iterate   59    f=   1.176941304521E-03    |proj g|=  2.164267108E-03

At iterate   60    f=   1.176827164380E-03    |proj g|=  1.738005519E-03

At iterate   61    f=   1.176728367042E-03    |proj g|=  1.126129860E-03

At iterate   62    f=   1.176638608514E-03    |proj g|=  1.049350463E-03

At iterate   63    f=   1.176541466683E-03    |proj g|=  7.914748138E-04

At iterate   64    f=   1.176411296592E-03    |proj g|=  1.473087007E-03

At iterate   65    f=   1.176239177910E-03    |proj g|=  1.427540129E-03

At iterate   66    f=   1.176058034425E-03    |proj g|=  2.356207121E-03

At iterate   67    f=   1.175889565764E-03    |proj g|=  2.238934119E-03

At iterate   68    f=   1.175792441705E-03    |proj g|=  1.788088210E-03

At iterate   69    f=   1.175736575643E-03    |proj g|=  1.345350523E-03

At iterate   70    f=   1.175651482365E-03    |proj g|=  1.546141994E-03

At iterate   71    f=   1.175542922339E-03    |proj g|=  1.952511396E-03

At iterate   72    f=   1.175452211423E-03    |proj g|=  1.537383196E-03

At iterate   73    f=   1.175428571400E-03    |proj g|=  2.946874394E-03

At iterate   74    f=   1.175288628240E-03    |proj g|=  1.570062533E-03

At iterate   75    f=   1.175195370092E-03    |proj g|=  7.462650346E-04

At iterate   76    f=   1.175187467889E-03    |proj g|=  1.571528899E-03

At iterate   77    f=   1.175187467889E-03    |proj g|=  1.571528907E-03

           * * *

Tit   = total number of iterations
Tnf   = total number of function evaluations
Tnint = total number of segments explored during Cauchy searches
Skip  = number of BFGS updates skipped
Nact  = number of active bounds at final generalized Cauchy point
Projg = norm of the final projected gradient
F     = final function value

           * * *

   N    Tit     Tnf  Tnint  Skip  Nact     Projg        F
 4656     77    100      1     0     0   1.572D-03   1.175D-03
  F =   1.1751874678894644E-003

CONVERGENCE: REL_REDUCTION_OF_F_<=_FACTR*EPSMCH             

 Cauchy                time 0.000E+00 seconds.
 Subspace minimization time 0.000E+00 seconds.
 Line search           time 0.000E+00 seconds.

 Total User time 0.000E+00 seconds.

