#INFO: **** input file is /tigress/xingz/pydmfet/examples/research/Al12/dmfet/least/Al12.py ****
from pydmfet import locints, sdmfet, oep, tools, dfet_ao, proj_ao
from pydmfet.dfet_ao import dfet
from pydmfet.qcwrap.pyscf_rks_ao import rks_ao
from pyscf import gto, scf,dft, ao2mo,cc
import numpy as np
from pyscf.tools import molden, cubegen
import copy,time
from pydmfet.tools.sym import h_lattice_sym_tab

bas = 'stuttgartdz'
ecp = 'stuttgartdz'
temp = 0.005


mol = gto.Mole()
mol.atom = open('Al12.xyz').read()
mol.basis = bas
mol.ecp = ecp
mol.build(max_memory = 4000, verbose=4)

mf = rks_ao(mol,smear_sigma = temp)
mf.xc = 'pbe,pbe'
mf.max_cycle = 50
mf.scf(dm0=None)

natoms = mol.natm
impAtom = np.zeros([natoms], dtype=int)
for i in range(6):
    impAtom[i] = 1

ghost_frag = 1-impAtom
ghost_env = 1-ghost_frag

mol_frag = gto.Mole()
mol_frag.atom = tools.add_ghost(mol.atom, ghost_frag)
mol_frag.basis = bas
mol_frag.ecp = ecp
mol_frag.build(max_memory = 4000,verbose = 4)

mol_env = gto.Mole()
mol_env.atom = tools.add_ghost(mol.atom, ghost_env)
mol_env.basis =  bas
mol_env.ecp = ecp
mol_env.build(max_memory = 4000,verbose = 4)

Ne_frag = 18
Ne_env = 18

boundary_atoms = None
boundary_atoms2 =None

umat = None
umat = np.load("umat.npy")

params = oep.OEPparams(algorithm = 'leastsq', opt_method = 'L-BFGS-B', diffP_tol=1e-3, outer_maxit = 10)
params.options['ftol'] = 1e-11
params.options['gtol'] = 1e-4
params.options['maxiter'] = 100
params.options['svd_thresh'] = 1e-5

theDMFET = dfet.DFET(mf, mol_frag, mol_env,Ne_frag,Ne_env,\
                     boundary_atoms=boundary_atoms, boundary_atoms2=boundary_atoms2,umat = umat,\
                     oep_params=params, smear_sigma=temp, ecw_method = 'hf',mf_method = mf.xc, plot_dens=True)

umat = theDMFET.embedding_potential()
#INFO: ******************** input file end ********************


System: uname_result(system='Linux', node='tiger-h19c1n1', release='3.10.0-957.27.2.el7.x86_64', version='#1 SMP Tue Jul 30 11:12:20 EDT 2019', machine='x86_64', processor='x86_64')  Threads 40
Python 3.7.0 (default, Jun 28 2018, 13:15:42) 
[GCC 7.2.0]
numpy 1.16.4  scipy 1.4.0.dev0+0f78e0f
Date: Thu Aug 22 19:09:18 2019
PySCF version 1.5
PySCF path  /home/xingz/.local/lib/python3.7/site-packages/pyscf

[CONFIG] conf_file None
[INPUT] verbose = 4
[INPUT] num. atoms = 12
[INPUT] num. electrons = 36
[INPUT] charge = 0
[INPUT] spin (= nelec alpha-beta = 2S) = 0
[INPUT] symmetry False subgroup None
[INPUT] Mole.unit = angstrom
[INPUT]  1 Al     8.092960000000   4.046480000000  -0.000000000000 AA   15.293477937060   7.646738968530  -0.000000000000 Bohr
[INPUT]  2 Al     8.092960000000   6.069720000000  -2.023240000000 AA   15.293477937060  11.470108452795  -3.823369484265 Bohr
[INPUT]  3 Al    10.116200000000   4.046480000000  -2.023240000000 AA   19.116847421325   7.646738968530  -3.823369484265 Bohr
[INPUT]  4 Al     6.069720000000   4.046480000000  -2.023240000000 AA   11.470108452795   7.646738968530  -3.823369484265 Bohr
[INPUT]  5 Al     8.092960000000   2.023240000000  -2.023240000000 AA   15.293477937060   3.823369484265  -3.823369484265 Bohr
[INPUT]  6 Al     8.092960000000   4.046480000000  -4.046480000000 AA   15.293477937060   7.646738968530  -7.646738968530 Bohr
[INPUT]  7 Al     6.069720000000   6.069720000000  -0.000000000000 AA   11.470108452795  11.470108452795  -0.000000000000 Bohr
[INPUT]  8 Al    10.116200000000   2.023240000000  -0.000000000000 AA   19.116847421325   3.823369484265  -0.000000000000 Bohr
[INPUT]  9 Al    10.116200000000   6.069720000000  -4.046480000000 AA   19.116847421325  11.470108452795  -7.646738968530 Bohr
[INPUT] 10 Al     6.069720000000   2.023240000000  -0.000000000000 AA   11.470108452795   3.823369484265  -0.000000000000 Bohr
[INPUT] 11 Al     6.069720000000   6.069720000000  -4.046480000000 AA   11.470108452795  11.470108452795  -7.646738968530 Bohr
[INPUT] 12 Al    10.116200000000   2.023240000000  -4.046480000000 AA   19.116847421325   3.823369484265  -7.646738968530 Bohr

nuclear repulsion = 84.8573926838199
number of shells = 48
number of NR pGTOs = 192
number of NR cGTOs = 96
basis = stuttgartdz
ecp = stuttgartdz
CPU time:         2.92
rks_ao.ne_frozen =  0


******** <class 'pydmfet.qcwrap.pyscf_rks_ao.rks_ao'> flags ********
method = rks_ao-RKS-RHF
initial guess = minao
damping factor = 0
level shift factor = 0
DIIS = <class 'pyscf.scf.diis.CDIIS'>
DIIS start cycle = 1
DIIS space = 8
SCF tol = 1e-09
SCF gradient tol = None
max. SCF cycles = 50
direct_scf = False
chkfile to save SCF result = /tmp/tmpnfc5b23i
max_memory 4000 MB (current use 66 MB)
XC functionals = pbe,pbe
small_rho_cutoff = 1e-07
radial grids: 
    Treutler-Ahlrichs (JCP 102, 346 (M4)) radial grids
    
becke partition: Becke, JCP, 88, 2547 (1988)
pruning grids: <function nwchem_prune at 0x2b3af871c400>
grids dens level: 3
symmetrized grids: False
atomic radii adjust function: <function treutler_atomic_radii_adjust at 0x2b3af871c378>
Set gradient conv threshold to 3.16228e-05
tot grids = 220800
init E= -21.344783658299
HOMO:  -0.09640875247665467 LUMO:  -0.08910626015728007
Fermi energy:      -0.0887572500
[2.     2.     2.     2.     2.     2.     2.     2.     2.     2.
 2.     2.     1.9995 1.9096 1.7557 1.7557 1.6441 1.6441 1.0349 0.2163
 0.02   0.02  ]
entropy correction =  -0.030126401120555535
cycle= 1 E= -24.0317931623436  delta_E= -2.69  |g|= 0.653  |ddm|= 6.67
HOMO:  -0.23116268121406183 LUMO:  -0.23116268121406183
Fermi energy:      -0.2358858179
[2.     2.     2.     2.     2.     2.     2.     2.     2.     2.
 2.     2.     2.     1.9989 1.9981 1.9981 1.9963 0.5599 0.5599 0.4393
 0.4393 0.0101]
entropy correction =  -0.02303933338298812
cycle= 2 E= -22.75894123893  delta_E= 1.27  |g|= 1.61  |ddm|= 4.31
HOMO:  -0.18647942894363115 LUMO:  -0.17551521715008653
Fermi energy:      -0.1766937420
[2.     2.     2.     2.     2.     2.     2.     2.     2.     2.
 2.     2.     1.9995 1.9702 1.7766 1.7766 1.7524 1.7524 0.8827 0.0807
 0.0044 0.0044]
entropy correction =  -0.02415297614020337
cycle= 3 E= -24.1577819139599  delta_E= -1.4  |g|= 0.177  |ddm|= 3.48
HOMO:  -0.16723309364643268 LUMO:  -0.16668219584287014
Fermi energy:      -0.1626445453
[2.     2.     2.     2.     2.     2.     2.     2.     2.     2.
 2.     2.     1.9999 1.922  1.8341 1.8341 1.4292 1.4292 1.3832 0.1196
 0.0244 0.0244]
entropy correction =  -0.029092388982086548
cycle= 4 E= -24.1758252803636  delta_E= -0.018  |g|= 0.0887  |ddm|= 0.83
HOMO:  -0.16913270192186347 LUMO:  -0.16476599946426135
Fermi energy:      -0.1627185946
[2.     2.     2.     2.     2.     2.     2.     2.     2.     2.
 2.     2.     1.9998 1.9364 1.7964 1.7964 1.5659 1.5659 1.2019 0.1144
 0.0115 0.0115]
entropy correction =  -0.028086976616489085
cycle= 5 E= -24.1831548018885  delta_E= -0.00733  |g|= 0.00917  |ddm|= 0.293
HOMO:  -0.17049749264549746 LUMO:  -0.16611814497689134
Fermi energy:      -0.1641279001
[2.     2.     2.     2.     2.     2.     2.     2.     2.     2.
 2.     2.     1.9999 1.9389 1.802  1.802  1.5628 1.5628 1.1964 0.1103
 0.0124 0.0124]
entropy correction =  -0.027959631237355044
cycle= 6 E= -24.1832343076201  delta_E= -7.95e-05  |g|= 0.00113  |ddm|= 0.0422
HOMO:  -0.17058528293730635 LUMO:  -0.16630331880958302
Fermi energy:      -0.1642599608
[2.     2.     2.     2.     2.     2.     2.     2.     2.     2.
 2.     2.     1.9999 1.9387 1.8025 1.8025 1.5598 1.5598 1.2015 0.1105
 0.0124 0.0124]
entropy correction =  -0.02798323806982286
cycle= 7 E= -24.1832355424436  delta_E= -1.23e-06  |g|= 0.000895  |ddm|= 0.00747
HOMO:  -0.17054731833026063 LUMO:  -0.16621690815491505
Fermi energy:      -0.1641961314
[2.     2.     2.     2.     2.     2.     2.     2.     2.     2.
 2.     2.     1.9999 1.9385 1.8018 1.8018 1.5616 1.5616 1.1994 0.1109
 0.0124 0.0124]
entropy correction =  -0.027989016591825275
cycle= 8 E= -24.1832361917862  delta_E= -6.49e-07  |g|= 7.71e-05  |ddm|= 0.00356
HOMO:  -0.17053508515546523 LUMO:  -0.16621147282032242
Fermi energy:      -0.1641878969
[2.     2.     2.     2.     2.     2.     2.     2.     2.     2.
 2.     2.     1.9999 1.9385 1.8019 1.8019 1.5613 1.5613 1.1996 0.1108
 0.0124 0.0124]
entropy correction =  -0.027988384491849264
cycle= 9 E= -24.1832362012562  delta_E= -9.47e-09  |g|= 2.11e-05  |ddm|= 0.000544
HOMO:  -0.17053203701426606 LUMO:  -0.16620777273045045
Fermi energy:      -0.1641845192
[2.     2.     2.     2.     2.     2.     2.     2.     2.     2.
 2.     2.     1.9999 1.9385 1.8019 1.8019 1.5613 1.5613 1.1996 0.1108
 0.0124 0.0124]
entropy correction =  -0.027988108712781092
cycle= 10 E= -24.1832362015521  delta_E= -2.96e-10  |g|= 3.03e-06  |ddm|= 6.6e-05
HOMO:  -0.1705331171046879 LUMO:  -0.16620885001250418
Fermi energy:      -0.1641855888
[2.     2.     2.     2.     2.     2.     2.     2.     2.     2.
 2.     2.     1.9999 1.9385 1.8019 1.8019 1.5613 1.5613 1.1996 0.1108
 0.0124 0.0124]
entropy correction =  -0.02798811884046256
Extra cycle  E= -24.1832362015506  delta_E= 1.49e-12  |g|= 3.71e-06  |ddm|= 1.75e-05
converged SCF energy = -24.1832362015506
#INFO: **** input file is /tigress/xingz/pydmfet/examples/research/Al12/dmfet/least/Al12.py ****
from pydmfet import locints, sdmfet, oep, tools, dfet_ao, proj_ao
from pydmfet.dfet_ao import dfet
from pydmfet.qcwrap.pyscf_rks_ao import rks_ao
from pyscf import gto, scf,dft, ao2mo,cc
import numpy as np
from pyscf.tools import molden, cubegen
import copy,time
from pydmfet.tools.sym import h_lattice_sym_tab

bas = 'stuttgartdz'
ecp = 'stuttgartdz'
temp = 0.005


mol = gto.Mole()
mol.atom = open('Al12.xyz').read()
mol.basis = bas
mol.ecp = ecp
mol.build(max_memory = 4000, verbose=4)

mf = rks_ao(mol,smear_sigma = temp)
mf.xc = 'pbe,pbe'
mf.max_cycle = 50
mf.scf(dm0=None)

natoms = mol.natm
impAtom = np.zeros([natoms], dtype=int)
for i in range(6):
    impAtom[i] = 1

ghost_frag = 1-impAtom
ghost_env = 1-ghost_frag

mol_frag = gto.Mole()
mol_frag.atom = tools.add_ghost(mol.atom, ghost_frag)
mol_frag.basis = bas
mol_frag.ecp = ecp
mol_frag.build(max_memory = 4000,verbose = 4)

mol_env = gto.Mole()
mol_env.atom = tools.add_ghost(mol.atom, ghost_env)
mol_env.basis =  bas
mol_env.ecp = ecp
mol_env.build(max_memory = 4000,verbose = 4)

Ne_frag = 18
Ne_env = 18

boundary_atoms = None
boundary_atoms2 =None

umat = None
umat = np.load("umat.npy")

params = oep.OEPparams(algorithm = 'leastsq', opt_method = 'L-BFGS-B', diffP_tol=1e-3, outer_maxit = 10)
params.options['ftol'] = 1e-11
params.options['gtol'] = 1e-4
params.options['maxiter'] = 100
params.options['svd_thresh'] = 1e-5

theDMFET = dfet.DFET(mf, mol_frag, mol_env,Ne_frag,Ne_env,\
                     boundary_atoms=boundary_atoms, boundary_atoms2=boundary_atoms2,umat = umat,\
                     oep_params=params, smear_sigma=temp, ecw_method = 'hf',mf_method = mf.xc, plot_dens=True)

umat = theDMFET.embedding_potential()
#INFO: ******************** input file end ********************


System: uname_result(system='Linux', node='tiger-h19c1n1', release='3.10.0-957.27.2.el7.x86_64', version='#1 SMP Tue Jul 30 11:12:20 EDT 2019', machine='x86_64', processor='x86_64')  Threads 40
Python 3.7.0 (default, Jun 28 2018, 13:15:42) 
[GCC 7.2.0]
numpy 1.16.4  scipy 1.4.0.dev0+0f78e0f
Date: Thu Aug 22 19:09:31 2019
PySCF version 1.5
PySCF path  /home/xingz/.local/lib/python3.7/site-packages/pyscf

[CONFIG] conf_file None
[INPUT] verbose = 4
[INPUT] num. atoms = 12
[INPUT] num. electrons = 18
[INPUT] charge = 0
[INPUT] spin (= nelec alpha-beta = 2S) = 0
[INPUT] symmetry False subgroup None
[INPUT] Mole.unit = angstrom
[INPUT]  1 Al     8.092960000000   4.046480000000  -0.000000000000 AA   15.293477937060   7.646738968530  -0.000000000000 Bohr
[INPUT]  2 Al     8.092960000000   6.069720000000  -2.023240000000 AA   15.293477937060  11.470108452795  -3.823369484265 Bohr
[INPUT]  3 Al    10.116200000000   4.046480000000  -2.023240000000 AA   19.116847421325   7.646738968530  -3.823369484265 Bohr
[INPUT]  4 Al     6.069720000000   4.046480000000  -2.023240000000 AA   11.470108452795   7.646738968530  -3.823369484265 Bohr
[INPUT]  5 Al     8.092960000000   2.023240000000  -2.023240000000 AA   15.293477937060   3.823369484265  -3.823369484265 Bohr
[INPUT]  6 Al     8.092960000000   4.046480000000  -4.046480000000 AA   15.293477937060   7.646738968530  -7.646738968530 Bohr
[INPUT]  7 GHOST-Al   6.069720000000   6.069720000000  -0.000000000000 AA   11.470108452795  11.470108452795  -0.000000000000 Bohr
[INPUT]  8 GHOST-Al  10.116200000000   2.023240000000  -0.000000000000 AA   19.116847421325   3.823369484265  -0.000000000000 Bohr
[INPUT]  9 GHOST-Al  10.116200000000   6.069720000000  -4.046480000000 AA   19.116847421325  11.470108452795  -7.646738968530 Bohr
[INPUT] 10 GHOST-Al   6.069720000000   2.023240000000  -0.000000000000 AA   11.470108452795   3.823369484265  -0.000000000000 Bohr
[INPUT] 11 GHOST-Al   6.069720000000   6.069720000000  -4.046480000000 AA   11.470108452795  11.470108452795  -7.646738968530 Bohr
[INPUT] 12 GHOST-Al  10.116200000000   2.023240000000  -4.046480000000 AA   19.116847421325   3.823369484265  -7.646738968530 Bohr

nuclear repulsion = 23.5047992975816
number of shells = 48
number of NR pGTOs = 192
number of NR cGTOs = 96
basis = stuttgartdz
ecp = stuttgartdz
CPU time:       317.44
#INFO: **** input file is /tigress/xingz/pydmfet/examples/research/Al12/dmfet/least/Al12.py ****
from pydmfet import locints, sdmfet, oep, tools, dfet_ao, proj_ao
from pydmfet.dfet_ao import dfet
from pydmfet.qcwrap.pyscf_rks_ao import rks_ao
from pyscf import gto, scf,dft, ao2mo,cc
import numpy as np
from pyscf.tools import molden, cubegen
import copy,time
from pydmfet.tools.sym import h_lattice_sym_tab

bas = 'stuttgartdz'
ecp = 'stuttgartdz'
temp = 0.005


mol = gto.Mole()
mol.atom = open('Al12.xyz').read()
mol.basis = bas
mol.ecp = ecp
mol.build(max_memory = 4000, verbose=4)

mf = rks_ao(mol,smear_sigma = temp)
mf.xc = 'pbe,pbe'
mf.max_cycle = 50
mf.scf(dm0=None)

natoms = mol.natm
impAtom = np.zeros([natoms], dtype=int)
for i in range(6):
    impAtom[i] = 1

ghost_frag = 1-impAtom
ghost_env = 1-ghost_frag

mol_frag = gto.Mole()
mol_frag.atom = tools.add_ghost(mol.atom, ghost_frag)
mol_frag.basis = bas
mol_frag.ecp = ecp
mol_frag.build(max_memory = 4000,verbose = 4)

mol_env = gto.Mole()
mol_env.atom = tools.add_ghost(mol.atom, ghost_env)
mol_env.basis =  bas
mol_env.ecp = ecp
mol_env.build(max_memory = 4000,verbose = 4)

Ne_frag = 18
Ne_env = 18

boundary_atoms = None
boundary_atoms2 =None

umat = None
umat = np.load("umat.npy")

params = oep.OEPparams(algorithm = 'leastsq', opt_method = 'L-BFGS-B', diffP_tol=1e-3, outer_maxit = 10)
params.options['ftol'] = 1e-11
params.options['gtol'] = 1e-4
params.options['maxiter'] = 100
params.options['svd_thresh'] = 1e-5

theDMFET = dfet.DFET(mf, mol_frag, mol_env,Ne_frag,Ne_env,\
                     boundary_atoms=boundary_atoms, boundary_atoms2=boundary_atoms2,umat = umat,\
                     oep_params=params, smear_sigma=temp, ecw_method = 'hf',mf_method = mf.xc, plot_dens=True)

umat = theDMFET.embedding_potential()
#INFO: ******************** input file end ********************


System: uname_result(system='Linux', node='tiger-h19c1n1', release='3.10.0-957.27.2.el7.x86_64', version='#1 SMP Tue Jul 30 11:12:20 EDT 2019', machine='x86_64', processor='x86_64')  Threads 40
Python 3.7.0 (default, Jun 28 2018, 13:15:42) 
[GCC 7.2.0]
numpy 1.16.4  scipy 1.4.0.dev0+0f78e0f
Date: Thu Aug 22 19:09:31 2019
PySCF version 1.5
PySCF path  /home/xingz/.local/lib/python3.7/site-packages/pyscf

[CONFIG] conf_file None
[INPUT] verbose = 4
[INPUT] num. atoms = 12
[INPUT] num. electrons = 18
[INPUT] charge = 0
[INPUT] spin (= nelec alpha-beta = 2S) = 0
[INPUT] symmetry False subgroup None
[INPUT] Mole.unit = angstrom
[INPUT]  1 GHOST-Al   8.092960000000   4.046480000000  -0.000000000000 AA   15.293477937060   7.646738968530  -0.000000000000 Bohr
[INPUT]  2 GHOST-Al   8.092960000000   6.069720000000  -2.023240000000 AA   15.293477937060  11.470108452795  -3.823369484265 Bohr
[INPUT]  3 GHOST-Al  10.116200000000   4.046480000000  -2.023240000000 AA   19.116847421325   7.646738968530  -3.823369484265 Bohr
[INPUT]  4 GHOST-Al   6.069720000000   4.046480000000  -2.023240000000 AA   11.470108452795   7.646738968530  -3.823369484265 Bohr
[INPUT]  5 GHOST-Al   8.092960000000   2.023240000000  -2.023240000000 AA   15.293477937060   3.823369484265  -3.823369484265 Bohr
[INPUT]  6 GHOST-Al   8.092960000000   4.046480000000  -4.046480000000 AA   15.293477937060   7.646738968530  -7.646738968530 Bohr
[INPUT]  7 Al     6.069720000000   6.069720000000  -0.000000000000 AA   11.470108452795  11.470108452795  -0.000000000000 Bohr
[INPUT]  8 Al    10.116200000000   2.023240000000  -0.000000000000 AA   19.116847421325   3.823369484265  -0.000000000000 Bohr
[INPUT]  9 Al    10.116200000000   6.069720000000  -4.046480000000 AA   19.116847421325  11.470108452795  -7.646738968530 Bohr
[INPUT] 10 Al     6.069720000000   2.023240000000  -0.000000000000 AA   11.470108452795   3.823369484265  -0.000000000000 Bohr
[INPUT] 11 Al     6.069720000000   6.069720000000  -4.046480000000 AA   11.470108452795  11.470108452795  -7.646738968530 Bohr
[INPUT] 12 Al    10.116200000000   2.023240000000  -4.046480000000 AA   19.116847421325   3.823369484265  -7.646738968530 Bohr

nuclear repulsion = 14.0938802665721
number of shells = 48
number of NR pGTOs = 192
number of NR cGTOs = 96
basis = stuttgartdz
ecp = stuttgartdz
CPU time:       317.85


******** <class 'pydmfet.dfet_ao.scf.EmbedSCF'> flags ********
method = EmbedSCF-RKS-RHF
initial guess = minao
damping factor = 0
level shift factor = 0
DIIS = <class 'pyscf.scf.diis.CDIIS'>
DIIS start cycle = 1
DIIS space = 8
SCF tol = 1e-09
SCF gradient tol = None
max. SCF cycles = 50
direct_scf = False
chkfile to save SCF result = /tmp/tmph3bpq3fr
max_memory 4000 MB (current use 519 MB)
XC functionals = pbe,pbe
small_rho_cutoff = 1e-07
radial grids: 
    Treutler-Ahlrichs (JCP 102, 346 (M4)) radial grids
    
becke partition: Becke, JCP, 88, 2547 (1988)
pruning grids: <function nwchem_prune at 0x2b3af871c400>
grids dens level: 3
symmetrized grids: False
atomic radii adjust function: <function treutler_atomic_radii_adjust at 0x2b3af871c378>
Set gradient conv threshold to 3.16228e-05
tot grids = 190200
init E= -9.26968304021845
HOMO: -0.2421786419107188 LUMO: -0.23867398533875409
mo_energy:
[-0.3681 -0.2682 -0.2663 -0.2662 -0.2598 -0.2596 -0.2589 -0.2422 -0.2422
 -0.2387 -0.2381 -0.2311 -0.2305 -0.2171]
e_fermi =  -0.24104586760904018
[2.    1.991 1.987 1.987 1.954 1.953 1.945 1.115 1.113 0.767 0.714 0.24
 0.217 0.017]
entropy correction =  -0.0390143947659656
cycle= 1 E= -12.9125841833435  delta_E= -3.64  |g|= 0.865  |ddm|= 4.92
HOMO: -0.49797709300523185 LUMO: -0.44852648441178894
mo_energy:
[-0.872 -0.676 -0.62  -0.619 -0.54  -0.53  -0.529 -0.498 -0.498 -0.449
 -0.444 -0.443 -0.431 -0.426]
e_fermi =  -0.47301942617697695
[2.    2.    2.    2.    2.    2.    2.    1.987 1.987 0.015 0.006 0.005]
entropy correction =  -0.0016449087525445896
cycle= 2 E= -12.8240162081786  delta_E= 0.0886  |g|= 1.09  |ddm|= 3.43
HOMO: -0.3840275405699972 LUMO: -0.3722162418069951
mo_energy:
[-0.59  -0.445 -0.418 -0.417 -0.409 -0.404 -0.403 -0.384 -0.384 -0.372
 -0.372 -0.372 -0.363 -0.335]
e_fermi =  -0.3794736743480269
[2.    2.    1.999 1.999 1.995 1.984 1.983 1.431 1.426 0.38  0.375 0.355
 0.073]
entropy correction =  -0.02911714007129187
cycle= 3 E= -13.3595830050688  delta_E= -0.536  |g|= 0.234  |ddm|=  1.8
HOMO: -0.370742992669736 LUMO: -0.37072390813122075
mo_energy:
[-0.556 -0.405 -0.4   -0.399 -0.391 -0.39  -0.386 -0.371 -0.371 -0.371
 -0.366 -0.366 -0.358 -0.326]
e_fermi =  -0.37090330215080153
[2.    1.998 1.994 1.993 1.965 1.958 1.904 1.032 0.984 0.982 0.535 0.525
 0.129]
entropy correction =  -0.039099420830093046
cycle= 4 E= -13.3956308955198  delta_E= -0.036  |g|= 0.0867  |ddm|= 0.829
HOMO: -0.3670061230953902 LUMO: -0.3649199188541154
mo_energy:
[-0.55  -0.406 -0.395 -0.392 -0.388 -0.386 -0.384 -0.367 -0.367 -0.365
 -0.363 -0.362 -0.352 -0.321]
e_fermi =  -0.3667613776454181
[2.    1.999 1.993 1.988 1.971 1.961 1.943 1.038 1.024 0.818 0.626 0.537
 0.102]
entropy correction =  -0.03832640146782919
cycle= 5 E= -13.3520086799482  delta_E= 0.0436  |g|= 0.271  |ddm|= 0.55
HOMO: -0.3659949676289717 LUMO: -0.3654091068880376
mo_energy:
[-0.55  -0.406 -0.393 -0.391 -0.387 -0.386 -0.385 -0.366 -0.366 -0.365
 -0.362 -0.362 -0.352 -0.321]
e_fermi =  -0.36644486242887736
[2.    1.999 1.989 1.985 1.97  1.962 1.951 0.997 0.955 0.897 0.617 0.575
 0.102]
entropy correction =  -0.03861724377785013
cycle= 6 E= -13.4014676901192  delta_E= -0.0495  |g|= 0.0489  |ddm|= 0.422
HOMO: -0.3669159671755433 LUMO: -0.36625485944828023
mo_energy:
[-0.551 -0.406 -0.393 -0.392 -0.388 -0.386 -0.385 -0.368 -0.367 -0.366
 -0.363 -0.362 -0.352 -0.322]
e_fermi =  -0.36721638504782034
[2.    1.999 1.989 1.987 1.972 1.954 1.948 1.068 0.97  0.904 0.574 0.54
 0.095]
entropy correction =  -0.038256209216163704
cycle= 7 E= -13.3995043945297  delta_E= 0.00196  |g|= 0.0628  |ddm|= 0.267
HOMO: -0.36852762051137555 LUMO: -0.3661990388217948
mo_energy:
[-0.551 -0.406 -0.394 -0.394 -0.388 -0.387 -0.386 -0.369 -0.369 -0.366
 -0.363 -0.363 -0.353 -0.323]
e_fermi =  -0.3679657597630044
[2.    1.999 1.99  1.988 1.961 1.96  1.943 1.063 1.056 0.825 0.563 0.559
 0.092]
entropy correction =  -0.03830445325424245
cycle= 8 E= -13.4032469715183  delta_E= -0.00374  |g|= 0.0214  |ddm|= 0.175
HOMO: -0.3676534174992847 LUMO: -0.365766281871094
mo_energy:
[-0.549 -0.405 -0.393 -0.392 -0.387 -0.387 -0.385 -0.368 -0.368 -0.366
 -0.363 -0.363 -0.352 -0.322]
e_fermi =  -0.3673038406428064
[2.    1.999 1.989 1.987 1.961 1.961 1.942 1.036 1.035 0.847 0.575 0.574
 0.094]
entropy correction =  -0.038587662939145735
cycle= 9 E= -13.4029882040691  delta_E= 0.000259  |g|= 0.0305  |ddm|= 0.0609
HOMO: -0.3666160559133058 LUMO: -0.365281050210876
mo_energy:
[-0.548 -0.404 -0.392 -0.391 -0.386 -0.386 -0.384 -0.367 -0.367 -0.365
 -0.362 -0.362 -0.352 -0.321]
e_fermi =  -0.3665629671598861
[2.    1.999 1.988 1.985 1.962 1.962 1.939 1.013 1.005 0.873 0.59  0.588
 0.096]
entropy correction =  -0.03888508104629766
cycle= 10 E= -13.4036562664074  delta_E= -0.000668  |g|= 0.00306  |ddm|= 0.0557
HOMO: -0.36631065436451665 LUMO: -0.3651308730443282
mo_energy:
[-0.547 -0.403 -0.391 -0.391 -0.386 -0.386 -0.384 -0.366 -0.366 -0.365
 -0.362 -0.362 -0.351 -0.321]
e_fermi =  -0.366353748079419
[2.    1.999 1.987 1.986 1.962 1.962 1.939 1.008 0.996 0.878 0.595 0.591
 0.097]
entropy correction =  -0.03893569494750178
cycle= 11 E= -13.4036471889448  delta_E= 9.08e-06  |g|= 0.00405  |ddm|= 0.0217
HOMO: -0.36646742209035926 LUMO: -0.36514422215115533
mo_energy:
[-0.548 -0.403 -0.392 -0.391 -0.386 -0.386 -0.384 -0.366 -0.366 -0.365
 -0.362 -0.362 -0.352 -0.321]
e_fermi =  -0.36641735628368405
[2.    1.999 1.987 1.986 1.962 1.962 1.94  1.007 1.005 0.873 0.592 0.59
 0.097]
entropy correction =  -0.03889083486213307
cycle= 12 E= -13.4036583772671  delta_E= -1.12e-05  |g|= 0.00361  |ddm|= 0.0155
HOMO: -0.36649168878184485 LUMO: -0.3651508793308156
mo_energy:
[-0.548 -0.404 -0.392 -0.391 -0.386 -0.386 -0.384 -0.366 -0.366 -0.365
 -0.362 -0.362 -0.352 -0.321]
e_fermi =  -0.3664285808105784
[2.    1.999 1.987 1.986 1.962 1.962 1.94  1.007 1.006 0.873 0.591 0.59
 0.097]
entropy correction =  -0.038886858126929935
cycle= 13 E= -13.4036674779551  delta_E= -9.1e-06  |g|= 0.000569  |ddm|= 0.00692
HOMO: -0.3664683986892441 LUMO: -0.3651449450291806
mo_energy:
[-0.548 -0.404 -0.392 -0.391 -0.386 -0.386 -0.384 -0.366 -0.366 -0.365
 -0.362 -0.362 -0.352 -0.321]
e_fermi =  -0.36641930150049623
[2.    1.999 1.987 1.986 1.962 1.962 1.94  1.007 1.005 0.873 0.591 0.59
 0.097]
entropy correction =  -0.03888961470830942
cycle= 14 E= -13.4036656263831  delta_E= 1.85e-06  |g|= 0.00162  |ddm|= 0.00425
HOMO: -0.3664666131492586 LUMO: -0.3651476585071227
mo_energy:
[-0.548 -0.404 -0.392 -0.391 -0.386 -0.386 -0.384 -0.366 -0.366 -0.365
 -0.362 -0.362 -0.352 -0.321]
e_fermi =  -0.36642096925609474
[2.    1.999 1.987 1.986 1.962 1.962 1.94  1.007 1.005 0.873 0.591 0.59
 0.097]
entropy correction =  -0.038890519154592476
cycle= 15 E= -13.4036607333305  delta_E= 4.89e-06  |g|= 0.00304  |ddm|= 0.00585
HOMO: -0.3664953488472495 LUMO: -0.3651614903564443
mo_energy:
[-0.548 -0.404 -0.392 -0.391 -0.386 -0.386 -0.384 -0.367 -0.366 -0.365
 -0.362 -0.362 -0.352 -0.321]
e_fermi =  -0.3664361824601734
[2.    1.999 1.987 1.986 1.962 1.962 1.94  1.007 1.006 0.873 0.591 0.59
 0.097]
entropy correction =  -0.03888968715221575
cycle= 16 E= -13.4036676237553  delta_E= -6.89e-06  |g|= 0.000373  |ddm|= 0.00526
HOMO: -0.3665052539869446 LUMO: -0.3651677906868124
mo_energy:
[-0.548 -0.404 -0.392 -0.391 -0.386 -0.386 -0.384 -0.367 -0.367 -0.365
 -0.362 -0.362 -0.352 -0.321]
e_fermi =  -0.3664441254635198
[2.    1.999 1.987 1.986 1.962 1.962 1.94  1.007 1.006 0.873 0.591 0.59
 0.097]
entropy correction =  -0.03888778360871339
cycle= 17 E= -13.4036677557071  delta_E= -1.32e-07  |g|= 0.000148  |ddm|= 0.00115
HOMO: -0.3665034459047516 LUMO: -0.36516646021273025
mo_energy:
[-0.548 -0.404 -0.392 -0.391 -0.386 -0.386 -0.384 -0.367 -0.367 -0.365
 -0.362 -0.362 -0.352 -0.321]
e_fermi =  -0.36644231950192696
[2.    1.999 1.987 1.986 1.962 1.962 1.94  1.007 1.006 0.873 0.591 0.59
 0.097]
entropy correction =  -0.03888906494606012
cycle= 18 E= -13.4036674950701  delta_E= 2.61e-07  |g|= 0.00062  |ddm|= 0.0011
HOMO: -0.36649807174132615 LUMO: -0.3651622916580023
mo_energy:
[-0.548 -0.404 -0.392 -0.391 -0.386 -0.386 -0.384 -0.367 -0.366 -0.365
 -0.362 -0.362 -0.352 -0.321]
e_fermi =  -0.3664378851563023
[2.    1.999 1.987 1.986 1.962 1.962 1.94  1.007 1.006 0.873 0.591 0.59
 0.097]
entropy correction =  -0.038889398015670734
cycle= 19 E= -13.4036677701885  delta_E= -2.75e-07  |g|= 6.23e-05  |ddm|= 0.000969
HOMO: -0.3664987789973519 LUMO: -0.3651625677987957
mo_energy:
[-0.548 -0.404 -0.392 -0.391 -0.386 -0.386 -0.384 -0.367 -0.366 -0.365
 -0.362 -0.362 -0.352 -0.321]
e_fermi =  -0.3664385917247957
[2.    1.999 1.987 1.986 1.962 1.962 1.94  1.007 1.006 0.873 0.591 0.59
 0.097]
entropy correction =  -0.03888869264213732
cycle= 20 E= -13.4036677736729  delta_E= -3.48e-09  |g|= 1.96e-05  |ddm|= 0.000206
HOMO: -0.3664998819172724 LUMO: -0.3651627724301125
mo_energy:
[-0.548 -0.404 -0.392 -0.391 -0.386 -0.386 -0.384 -0.367 -0.366 -0.365
 -0.362 -0.362 -0.352 -0.321]
e_fermi =  -0.36643903786520143
[2.    1.999 1.987 1.986 1.962 1.962 1.94  1.007 1.006 0.873 0.591 0.59
 0.097]
entropy correction =  -0.03888832213406497
cycle= 21 E= -13.4036677684634  delta_E= 5.21e-09  |g|= 8.9e-05  |ddm|= 0.000209
HOMO: -0.36649966491166486 LUMO: -0.36516273984384773
mo_energy:
[-0.548 -0.404 -0.392 -0.391 -0.386 -0.386 -0.384 -0.367 -0.366 -0.365
 -0.362 -0.362 -0.352 -0.321]
e_fermi =  -0.36643902894594466
[2.    1.999 1.987 1.986 1.962 1.962 1.94  1.007 1.006 0.873 0.591 0.59
 0.097]
entropy correction =  -0.038888290029641344
cycle= 22 E= -13.4036677721805  delta_E= -3.72e-09  |g|= 4.9e-05  |ddm|= 0.000232
HOMO: -0.3664986502308872 LUMO: -0.3651623242456772
mo_energy:
[-0.548 -0.404 -0.392 -0.391 -0.386 -0.386 -0.384 -0.367 -0.366 -0.365
 -0.362 -0.362 -0.352 -0.321]
e_fermi =  -0.36643837887249353
[2.    1.999 1.987 1.986 1.962 1.962 1.94  1.007 1.006 0.873 0.591 0.59
 0.097]
entropy correction =  -0.03888866040781136
cycle= 23 E= -13.4036677740357  delta_E= -1.86e-09  |g|= 1.29e-05  |ddm|= 0.000116
HOMO: -0.3664987279781332 LUMO: -0.3651623473490198
mo_energy:
[-0.548 -0.404 -0.392 -0.391 -0.386 -0.386 -0.384 -0.367 -0.366 -0.365
 -0.362 -0.362 -0.352 -0.321]
e_fermi =  -0.3664384002805273
[2.    1.999 1.987 1.986 1.962 1.962 1.94  1.007 1.006 0.873 0.591 0.59
 0.097]
entropy correction =  -0.038888663593103404
cycle= 24 E= -13.4036677741335  delta_E= -9.78e-11  |g|= 8.08e-06  |ddm|= 2.98e-05
HOMO: -0.3664993013033923 LUMO: -0.36516264644126883
mo_energy:
[-0.548 -0.404 -0.392 -0.391 -0.386 -0.386 -0.384 -0.367 -0.366 -0.365
 -0.362 -0.362 -0.352 -0.321]
e_fermi =  -0.36643875565002776
[2.    1.999 1.987 1.986 1.962 1.962 1.94  1.007 1.006 0.873 0.591 0.59
 0.097]
entropy correction =  -0.038888580980544984
Extra cycle  E= -13.4036677670255  delta_E= 7.11e-09  |g|= 0.000101  |ddm|= 0.000158
converged SCF energy = -13.4036677670255


******** <class 'pydmfet.dfet_ao.scf.EmbedSCF'> flags ********
method = EmbedSCF-RKS-RHF
initial guess = minao
damping factor = 0
level shift factor = 0
DIIS = <class 'pyscf.scf.diis.CDIIS'>
DIIS start cycle = 1
DIIS space = 8
SCF tol = 1e-09
SCF gradient tol = None
max. SCF cycles = 50
direct_scf = False
chkfile to save SCF result = /tmp/tmp8ow8xqvm
max_memory 4000 MB (current use 5543 MB)
XC functionals = pbe,pbe
small_rho_cutoff = 1e-07
radial grids: 
    Treutler-Ahlrichs (JCP 102, 346 (M4)) radial grids
    
becke partition: Becke, JCP, 88, 2547 (1988)
pruning grids: <function nwchem_prune at 0x2b3af871c400>
grids dens level: 3
symmetrized grids: False
atomic radii adjust function: <function treutler_atomic_radii_adjust at 0x2b3af871c378>
Set gradient conv threshold to 3.16228e-05
tot grids = 190200
init E= -9.12169490073837
HOMO: -0.1820374442966479 LUMO: -0.17115755672022867
mo_energy:
[-0.296 -0.296 -0.264 -0.236 -0.191 -0.188 -0.188 -0.182 -0.182 -0.171
 -0.168 -0.157 -0.157 -0.149]
e_fermi =  -0.1750221866167451
[2.    2.    2.    2.    1.915 1.851 1.85  1.606 1.605 0.632 0.403 0.058
 0.057 0.012 0.011]
entropy correction =  -0.03162199836985833
cycle= 1 E= -12.4375882371628  delta_E= -3.32  |g|= 0.773  |ddm|= 5.23
HOMO: -0.1331325857398454 LUMO: -0.12997866239235778
mo_energy:
[-0.352 -0.352 -0.312 -0.261 -0.239 -0.239 -0.153 -0.133 -0.133 -0.13
 -0.111 -0.11  -0.109 -0.104]
e_fermi =  -0.12911217176622947
[2.000e+00 2.000e+00 2.000e+00 2.000e+00 2.000e+00 2.000e+00 1.982e+00
 1.394e+00 1.382e+00 1.086e+00 4.832e-02 4.581e-02 3.626e-02 1.250e-02
 1.079e-02 1.041e-03]
entropy correction =  -0.023693035677848258
cycle= 2 E= -12.3597151232814  delta_E= 0.0779  |g|= 0.987  |ddm|=  2.9
HOMO: -0.21794578959228494 LUMO: -0.20957779073246005
mo_energy:
[-0.375 -0.375 -0.342 -0.294 -0.24  -0.24  -0.235 -0.218 -0.218 -0.21
 -0.208 -0.208 -0.2   -0.191]
e_fermi =  -0.2147406498881245
[2.000e+00 2.000e+00 2.000e+00 2.000e+00 1.988e+00 1.988e+00 1.967e+00
 1.312e+00 1.310e+00 5.252e-01 3.896e-01 3.865e-01 1.013e-01 1.570e-02
 1.552e-02 1.049e-03]
entropy correction =  -0.03300585184998571
cycle= 3 E= -12.7484771495569  delta_E= -0.389  |g|= 0.228  |ddm|= 1.38
HOMO: -0.21849409998658986 LUMO: -0.21368715123851537
mo_energy:
[-0.365 -0.365 -0.333 -0.288 -0.233 -0.228 -0.228 -0.219 -0.218 -0.214
 -0.214 -0.209 -0.201 -0.192]
e_fermi =  -0.2162397938690755
[2.    2.    2.    2.    1.929 1.825 1.816 1.224 1.222 0.75  0.748 0.357
 0.097 0.016 0.015]
entropy correction =  -0.04172959267738957
cycle= 4 E= -12.7743319910346  delta_E= -0.0259  |g|= 0.0634  |ddm|= 0.534
HOMO: -0.21874214322312224 LUMO: -0.21397047848894118
mo_energy:
[-0.365 -0.364 -0.332 -0.288 -0.233 -0.227 -0.227 -0.219 -0.219 -0.214
 -0.213 -0.209 -0.201 -0.192]
e_fermi =  -0.2163325597789036
[2.    2.    2.    2.    1.936 1.804 1.795 1.243 1.236 0.768 0.712 0.384
 0.093 0.014 0.013]
entropy correction =  -0.04199160951296501
cycle= 5 E= -12.7554665027107  delta_E= 0.0189  |g|= 0.171  |ddm|= 0.344
HOMO: -0.2183665202998248 LUMO: -0.2135823817933413
mo_energy:
[-0.364 -0.364 -0.332 -0.288 -0.233 -0.227 -0.227 -0.218 -0.218 -0.214
 -0.213 -0.209 -0.201 -0.192]
e_fermi =  -0.21609983472159525
[2.    2.    2.    2.    1.933 1.81  1.806 1.225 1.223 0.753 0.745 0.383
 0.09  0.016 0.015]
entropy correction =  -0.04202012400352434
cycle= 6 E= -12.7776519297477  delta_E= -0.0222  |g|= 0.0118  |ddm|= 0.266
HOMO: -0.21815951599188085 LUMO: -0.21321581825892505
mo_energy:
[-0.364 -0.364 -0.332 -0.288 -0.232 -0.227 -0.227 -0.218 -0.218 -0.213
 -0.213 -0.208 -0.201 -0.192]
e_fermi =  -0.21579206550382682
[2.    2.    2.    2.    1.931 1.806 1.805 1.237 1.232 0.748 0.743 0.375
 0.09  0.016 0.016]
entropy correction =  -0.0420150299237383
cycle= 7 E= -12.7778575669115  delta_E= -0.000206  |g|= 0.00623  |ddm|= 0.0497
HOMO: -0.2182921606049332 LUMO: -0.21333665241351848
mo_energy:
[-0.364 -0.364 -0.332 -0.288 -0.233 -0.227 -0.227 -0.218 -0.218 -0.213
 -0.213 -0.209 -0.201 -0.192]
e_fermi =  -0.2159049377075011
[2.    2.    2.    2.    1.931 1.806 1.803 1.235 1.234 0.749 0.746 0.374
 0.09  0.016 0.016]
entropy correction =  -0.042029400894722686
cycle= 8 E= -12.7778463304108  delta_E= 1.12e-05  |g|= 0.00777  |ddm|= 0.0269
HOMO: -0.2184066315548041 LUMO: -0.21350872128135354
mo_energy:
[-0.364 -0.364 -0.332 -0.288 -0.233 -0.227 -0.227 -0.218 -0.218 -0.214
 -0.213 -0.209 -0.201 -0.192]
e_fermi =  -0.21603175220827245
[2.    2.    2.    2.    1.931 1.805 1.802 1.234 1.233 0.753 0.747 0.373
 0.089 0.016 0.015]
entropy correction =  -0.04204962039958709
cycle= 9 E= -12.7778806011713  delta_E= -3.43e-05  |g|= 0.00336  |ddm|= 0.0191
HOMO: -0.2184388525802752 LUMO: -0.21353497891355458
mo_energy:
[-0.364 -0.364 -0.332 -0.288 -0.233 -0.227 -0.227 -0.218 -0.218 -0.214
 -0.214 -0.209 -0.201 -0.192]
e_fermi =  -0.21606516493013536
[2.    2.    2.    2.    1.931 1.804 1.802 1.234 1.233 0.752 0.75  0.372
 0.089 0.016 0.016]
entropy correction =  -0.042066587048033746
cycle= 10 E= -12.777883931704  delta_E= -3.33e-06  |g|= 0.00296  |ddm|= 0.00851
HOMO: -0.21843081629729408 LUMO: -0.21352243601811627
mo_energy:
[-0.364 -0.364 -0.332 -0.288 -0.233 -0.227 -0.227 -0.218 -0.218 -0.214
 -0.214 -0.209 -0.201 -0.192]
e_fermi =  -0.21606292833872592
[2.    2.    2.    2.    1.931 1.804 1.802 1.234 1.232 0.751 0.751 0.372
 0.089 0.016 0.016]
entropy correction =  -0.04206717022500429
cycle= 11 E= -12.7778903367762  delta_E= -6.41e-06  |g|= 0.000625  |ddm|= 0.00556
HOMO: -0.21840171934400057 LUMO: -0.21348638370586961
mo_energy:
[-0.364 -0.364 -0.332 -0.288 -0.233 -0.227 -0.227 -0.218 -0.218 -0.213
 -0.213 -0.209 -0.201 -0.192]
e_fermi =  -0.2160302878406011
[2.    2.    2.    2.    1.931 1.805 1.802 1.234 1.233 0.751 0.75  0.372
 0.089 0.016 0.016]
entropy correction =  -0.04205450887418529
cycle= 12 E= -12.7778904314827  delta_E= -9.47e-08  |g|= 0.000535  |ddm|= 0.0022
HOMO: -0.21839908697381993 LUMO: -0.21348391315876988
mo_energy:
[-0.364 -0.364 -0.332 -0.288 -0.233 -0.227 -0.227 -0.218 -0.218 -0.213
 -0.213 -0.209 -0.201 -0.192]
e_fermi =  -0.21602804976887124
[2.    2.    2.    2.    1.931 1.804 1.803 1.234 1.233 0.751 0.75  0.372
 0.089 0.016 0.016]
entropy correction =  -0.042054644878111606
cycle= 13 E= -12.7778906510646  delta_E= -2.2e-07  |g|= 0.000123  |ddm|= 0.00145
HOMO: -0.2183998415901095 LUMO: -0.21348410311624447
mo_energy:
[-0.364 -0.364 -0.332 -0.288 -0.233 -0.227 -0.227 -0.218 -0.218 -0.213
 -0.213 -0.209 -0.201 -0.192]
e_fermi =  -0.21602846718446458
[2.    2.    2.    2.    1.931 1.804 1.802 1.234 1.233 0.751 0.75  0.372
 0.089 0.016 0.016]
entropy correction =  -0.042055403147659313
cycle= 14 E= -12.777890662907  delta_E= -1.18e-08  |g|= 2.83e-05  |ddm|= 0.00033
HOMO: -0.2184006097845607 LUMO: -0.21348514650679232
mo_energy:
[-0.364 -0.364 -0.332 -0.288 -0.233 -0.227 -0.227 -0.218 -0.218 -0.213
 -0.213 -0.209 -0.201 -0.192]
e_fermi =  -0.21602918507788177
[2.    2.    2.    2.    1.931 1.804 1.802 1.234 1.233 0.751 0.75  0.372
 0.089 0.016 0.016]
entropy correction =  -0.04205565056769376
cycle= 15 E= -12.7778906641229  delta_E= -1.22e-09  |g|= 7.49e-06  |ddm|= 0.000125
HOMO: -0.21840136820268383 LUMO: -0.21348584192253114
mo_energy:
[-0.364 -0.364 -0.332 -0.288 -0.233 -0.227 -0.227 -0.218 -0.218 -0.213
 -0.213 -0.209 -0.201 -0.192]
e_fermi =  -0.2160300009557726
[2.    2.    2.    2.    1.931 1.804 1.803 1.234 1.233 0.751 0.75  0.372
 0.089 0.016 0.016]
entropy correction =  -0.0420556752294316
cycle= 16 E= -12.7778906627374  delta_E= 1.39e-09  |g|= 4.21e-05  |ddm|= 0.000103
HOMO: -0.21840114860490242 LUMO: -0.21348577371493505
mo_energy:
[-0.364 -0.364 -0.332 -0.288 -0.233 -0.227 -0.227 -0.218 -0.218 -0.213
 -0.213 -0.209 -0.201 -0.192]
e_fermi =  -0.21602980947862702
[2.    2.    2.    2.    1.931 1.804 1.802 1.234 1.233 0.751 0.75  0.372
 0.089 0.016 0.016]
entropy correction =  -0.04205559432363851
cycle= 17 E= -12.7778906641481  delta_E= -1.41e-09  |g|= 5.65e-06  |ddm|= 8.45e-05
HOMO: -0.2184010716971297 LUMO: -0.21348570396177352
mo_energy:
[-0.364 -0.364 -0.332 -0.288 -0.233 -0.227 -0.227 -0.218 -0.218 -0.213
 -0.213 -0.209 -0.201 -0.192]
e_fermi =  -0.2160297303349501
[2.    2.    2.    2.    1.931 1.804 1.802 1.234 1.233 0.751 0.75  0.372
 0.089 0.016 0.016]
entropy correction =  -0.04205558546866763
cycle= 18 E= -12.7778906641634  delta_E= -1.52e-11  |g|= 3.7e-06  |ddm|= 1.68e-05
HOMO: -0.21840103342610676 LUMO: -0.21348553413841162
mo_energy:
[-0.364 -0.364 -0.332 -0.288 -0.233 -0.227 -0.227 -0.218 -0.218 -0.213
 -0.213 -0.209 -0.201 -0.192]
e_fermi =  -0.21602963574579495
[2.    2.    2.    2.    1.931 1.804 1.802 1.234 1.233 0.751 0.75  0.372
 0.089 0.016 0.016]
entropy correction =  -0.04205563889487401
Extra cycle  E= -12.7778906636236  delta_E= 5.4e-10  |g|= 2.65e-05  |ddm|= 5.62e-05
converged SCF energy = -12.7778906636236
|umat| =  2.7562086274569206
rks_ao.ne_frozen =  0
Set gradient conv threshold to 3.16228e-05
Initial guess from hcore.
HOMO:  -3.5059476906967832 LUMO:  -3.3123601028041985
Fermi energy:      -3.4073950945
[2. 2. 2. 2. 2. 2. 2. 2. 2.]
tot grids = 190200
init E= -10.1226742079722
HOMO:  -0.06808232170262518 LUMO:  -0.06764672497212952
Fermi energy:      -0.0725538148
[2.     2.     2.     2.     2.     2.     1.9951 1.9522 0.5804 0.5452
 0.4744 0.4526]
entropy correction =  -0.02400975422649998
cycle= 1 E= -10.2330004951277  delta_E= -0.11  |g|= 2.75  |ddm|= 7.87
HOMO:  -0.7782269071305147 LUMO:  -0.6487725636150238
Fermi energy:      -0.7121929805
[2. 2. 2. 2. 2. 2. 2. 2. 2.]
entropy correction =  -1.0279871145069172e-06
cycle= 2 E= -11.544885463381  delta_E= -1.31  |g|= 2.03  |ddm|= 6.47
HOMO:  -0.45049749472683026 LUMO:  -0.41765687917003863
Fermi energy:      -0.4347737074
[2.0000e+00 2.0000e+00 2.0000e+00 2.0000e+00 1.9997e+00 1.9970e+00
 1.9970e+00 1.9186e+00 1.9174e+00 6.3146e-02 6.1936e-02 2.7570e-02
 1.7053e-02 6.5562e-04]
entropy correction =  -0.0076951548793624475
cycle= 3 E= -13.2354576481741  delta_E= -1.69  |g|= 0.545  |ddm|= 3.79
HOMO:  -0.3660217109172861 LUMO:  -0.36538144513678344
Fermi energy:      -0.3682235022
[2.0000e+00 1.9985e+00 1.9948e+00 1.9941e+00 1.9768e+00 1.9756e+00
 1.8863e+00 1.2661e+00 7.8331e-01 7.2321e-01 6.0072e-01 5.5715e-01
 2.4321e-01 2.0042e-04]
entropy correction =  -0.03946576936933072
cycle= 4 E= -13.3678094237011  delta_E= -0.132  |g|= 0.207  |ddm|= 1.69
HOMO:  -0.3689033993251185 LUMO:  -0.36339860582554195
Fermi energy:      -0.3679573318
[2.0000e+00 1.9998e+00 1.9985e+00 1.9982e+00 1.9831e+00 1.9774e+00
 1.9478e+00 1.4316e+00 1.0943e+00 5.7329e-01 4.6928e-01 4.4755e-01
 7.8856e-02 1.6701e-04]
entropy correction =  -0.03373633414707891
cycle= 5 E= -13.0094885846905  delta_E= 0.358  |g|= 0.752  |ddm|= 1.39
HOMO:  -0.3735665414461612 LUMO:  -0.3693315387713619
Fermi energy:      -0.3720661065
[2.0000e+00 1.9998e+00 1.9964e+00 1.9940e+00 1.9731e+00 1.9674e+00
 1.9615e+00 1.1705e+00 1.1489e+00 7.3316e-01 4.9408e-01 4.6965e-01
 9.1336e-02 2.0462e-04]
entropy correction =  -0.0359277070929028
cycle= 6 E= -13.3894034501412  delta_E= -0.38  |g|= 0.135  |ddm|= 1.05
HOMO:  -0.3722945824593617 LUMO:  -0.3712857774113764
Fermi energy:      -0.3716564381
[2.0000e+00 1.9993e+00 1.9956e+00 1.9852e+00 1.9771e+00 1.9498e+00
 1.9272e+00 1.2303e+00 1.0637e+00 9.6295e-01 5.4789e-01 2.9181e-01
 6.8822e-02 2.2320e-04]
entropy correction =  -0.0360203218371775
cycle= 7 E= -13.3740578304257  delta_E= 0.0153  |g|= 0.167  |ddm|= 0.593
HOMO:  -0.37091027232442236 LUMO:  -0.3680918140052247
Fermi energy:      -0.3702733098
[2.0000e+00 1.9989e+00 1.9907e+00 1.9887e+00 1.9613e+00 1.9552e+00
 1.9386e+00 1.1706e+00 1.0636e+00 7.8525e-01 5.4042e-01 5.2259e-01
 8.3832e-02 2.4025e-04]
entropy correction =  -0.0378152724454784
cycle= 8 E= -13.3991223919194  delta_E= -0.0251  |g|= 0.0764  |ddm|= 0.499
HOMO:  -0.3691479851487569 LUMO:  -0.3669164507042446
Fermi energy:      -0.3686832628
[2.0000e+00 1.9988e+00 1.9896e+00 1.9868e+00 1.9640e+00 1.9549e+00
 1.9396e+00 1.1016e+00 1.0464e+00 8.2513e-01 5.5845e-01 5.4735e-01
 8.7202e-02 2.3597e-04]
entropy correction =  -0.038282501343044895
cycle= 9 E= -13.3948113696396  delta_E= 0.00431  |g|= 0.11  |ddm|= 0.268
HOMO:  -0.36523736721000993 LUMO:  -0.36468608378267353
Fermi energy:      -0.3658181744
[2.0000e+00 1.9987e+00 1.9864e+00 1.9818e+00 1.9636e+00 1.9631e+00
 1.9374e+00 1.0381e+00 9.4198e-01 8.8727e-01 6.1697e-01 5.8921e-01
 9.5182e-02 2.2849e-04]
entropy correction =  -0.03907324099341126
cycle= 10 E= -13.4015216680612  delta_E= -0.00671  |g|= 0.0515  |ddm|= 0.242
HOMO:  -0.36496257249637737 LUMO:  -0.3644944332201238
Fermi energy:      -0.3653925504
[2.0000e+00 1.9987e+00 1.9858e+00 1.9839e+00 1.9639e+00 1.9618e+00
 1.9392e+00 9.9608e-01 9.5703e-01 9.1043e-01 6.0786e-01 5.9567e-01
 9.9401e-02 2.2634e-04]
entropy correction =  -0.03911799348791206
cycle= 11 E= -13.4015459136793  delta_E= -2.42e-05  |g|= 0.0565  |ddm|= 0.165
HOMO:  -0.3651435780941733 LUMO:  -0.3643969679589591
Fermi energy:      -0.3654766915
[2.0000e+00 1.9988e+00 1.9863e+00 1.9841e+00 1.9637e+00 1.9629e+00
 1.9409e+00 9.9688e-01 9.6670e-01 8.9245e-01 6.1004e-01 5.9820e-01
 9.8804e-02 2.2852e-04]
entropy correction =  -0.03904794375070079
cycle= 12 E= -13.4035230470634  delta_E= -0.00198  |g|= 0.0162  |ddm|= 0.122
HOMO:  -0.3664542755251672 LUMO:  -0.3651347025865294
Fermi energy:      -0.3663943449
[2.0000e+00 1.9988e+00 1.9876e+00 1.9856e+00 1.9620e+00 1.9616e+00
 1.9393e+00 1.0104e+00 1.0060e+00 8.7470e-01 5.8924e-01 5.8743e-01
 9.7149e-02 2.3308e-04]
entropy correction =  -0.03889237964085273
cycle= 13 E= -13.4037745441024  delta_E= -0.000251  |g|= 0.00255  |ddm|= 0.0494
HOMO:  -0.36654556977054925 LUMO:  -0.3652017266518642
Fermi energy:      -0.3664848814
[2.0000e+00 1.9988e+00 1.9873e+00 1.9858e+00 1.9626e+00 1.9612e+00
 1.9398e+00 1.0120e+00 1.0061e+00 8.7238e-01 5.9031e-01 5.8687e-01
 9.6689e-02 2.3250e-04]
entropy correction =  -0.03887490624331979
cycle= 14 E= -13.403759120979  delta_E= 1.54e-05  |g|= 0.0045  |ddm|= 0.0182
HOMO:  -0.36656573967432315 LUMO:  -0.36519747166939537
Fermi energy:      -0.3664934746
[2.0000e+00 1.9988e+00 1.9874e+00 1.9855e+00 1.9622e+00 1.9618e+00
 1.9403e+00 1.0101e+00 1.0072e+00 8.7112e-01 5.9008e-01 5.8854e-01
 9.6540e-02 2.3174e-04]
entropy correction =  -0.03886491404292025
cycle= 15 E= -13.4037789223516  delta_E= -1.98e-05  |g|= 0.00139  |ddm|= 0.0149
HOMO:  -0.3665925820766616 LUMO:  -0.3652222868317992
Fermi energy:      -0.3665102140
[2.0000e+00 1.9988e+00 1.9874e+00 1.9855e+00 1.9620e+00 1.9618e+00
 1.9398e+00 1.0095e+00 1.0082e+00 8.7191e-01 5.8930e-01 5.8884e-01
 9.6635e-02 2.3247e-04]
entropy correction =  -0.03887956107144547
cycle= 16 E= -13.4037800982041  delta_E= -1.18e-06  |g|= 0.00122  |ddm|= 0.00511
HOMO:  -0.3665936243894115 LUMO:  -0.3652305795154028
Fermi energy:      -0.3665157226
[2.0000e+00 1.9988e+00 1.9874e+00 1.9855e+00 1.9622e+00 1.9615e+00
 1.9396e+00 1.0099e+00 1.0078e+00 8.7219e-01 5.9002e-01 5.8812e-01
 9.6651e-02 2.3274e-04]
entropy correction =  -0.03888569818351212
cycle= 17 E= -13.4037781209704  delta_E= 1.98e-06  |g|= 0.0018  |ddm|= 0.00605
HOMO:  -0.366601986974406 LUMO:  -0.3652266279512519
Fermi energy:      -0.3665151453
[2.0000e+00 1.9988e+00 1.9874e+00 1.9855e+00 1.9620e+00 1.9618e+00
 1.9398e+00 1.0092e+00 1.0087e+00 8.7186e-01 5.8931e-01 5.8877e-01
 9.6626e-02 2.3250e-04]
entropy correction =  -0.038879472494333926
cycle= 18 E= -13.4037792233074  delta_E= -1.1e-06  |g|= 0.00162  |ddm|= 0.0062
HOMO:  -0.3665811846071775 LUMO:  -0.3652168595379578
Fermi energy:      -0.3665021862
[2.0000e+00 1.9988e+00 1.9874e+00 1.9855e+00 1.9621e+00 1.9618e+00
 1.9398e+00 1.0092e+00 1.0079e+00 8.7217e-01 5.8964e-01 5.8894e-01
 9.6654e-02 2.3252e-04]
entropy correction =  -0.03888395084954591
cycle= 19 E= -13.4037812178822  delta_E= -1.99e-06  |g|= 0.000245  |ddm|= 0.00303
HOMO:  -0.36656388823173097 LUMO:  -0.3652047173756184
Fermi energy:      -0.3664848450
[2.0000e+00 1.9988e+00 1.9873e+00 1.9855e+00 1.9621e+00 1.9618e+00
 1.9397e+00 1.0082e+00 1.0079e+00 8.7268e-01 5.8997e-01 5.8911e-01
 9.6716e-02 2.3254e-04]
entropy correction =  -0.03888920166696234
cycle= 20 E= -13.4037791912212  delta_E= 2.03e-06  |g|= 0.00173  |ddm|= 0.00323
HOMO:  -0.36656799366824727 LUMO:  -0.3652072431410166
Fermi energy:      -0.3664885260
[2.0000e+00 1.9988e+00 1.9874e+00 1.9855e+00 1.9621e+00 1.9618e+00
 1.9398e+00 1.0084e+00 1.0079e+00 8.7257e-01 5.8993e-01 5.8893e-01
 9.6713e-02 2.3247e-04]
entropy correction =  -0.03888650318837848
cycle= 21 E= -13.4037811353542  delta_E= -1.94e-06  |g|= 0.000399  |ddm|= 0.00299
HOMO:  -0.366568530175104 LUMO:  -0.3652091314461742
Fermi energy:      -0.3664906025
[2.0000e+00 1.9988e+00 1.9874e+00 1.9855e+00 1.9621e+00 1.9618e+00
 1.9398e+00 1.0087e+00 1.0078e+00 8.7255e-01 5.8980e-01 5.8898e-01
 9.6712e-02 2.3249e-04]
entropy correction =  -0.03888648801530286
cycle= 22 E= -13.4037812742641  delta_E= -1.39e-07  |g|= 4.29e-05  |ddm|= 0.000934
HOMO:  -0.3665729887170179 LUMO:  -0.36521158314576113
Fermi energy:      -0.3664938371
[2.0000e+00 1.9988e+00 1.9874e+00 1.9855e+00 1.9621e+00 1.9618e+00
 1.9398e+00 1.0087e+00 1.0079e+00 8.7247e-01 5.8974e-01 5.8894e-01
 9.6704e-02 2.3250e-04]
entropy correction =  -0.03888564832650552
cycle= 23 E= -13.4037812756489  delta_E= -1.38e-09  |g|= 2.32e-05  |ddm|= 0.000132
HOMO:  -0.3665729258932124 LUMO:  -0.3652113574964977
Fermi energy:      -0.3664938892
[2.0000e+00 1.9988e+00 1.9874e+00 1.9855e+00 1.9621e+00 1.9618e+00
 1.9398e+00 1.0087e+00 1.0079e+00 8.7245e-01 5.8975e-01 5.8894e-01
 9.6699e-02 2.3249e-04]
entropy correction =  -0.038885460331976644
cycle= 24 E= -13.4037812755408  delta_E= 1.08e-10  |g|= 2.42e-05  |ddm|= 0.000106
HOMO:  -0.366575714799023 LUMO:  -0.3652126260191762
Fermi energy:      -0.3664954234
[2.0000e+00 1.9988e+00 1.9874e+00 1.9855e+00 1.9621e+00 1.9618e+00
 1.9398e+00 1.0087e+00 1.0080e+00 8.7242e-01 5.8966e-01 5.8897e-01
 9.6697e-02 2.3250e-04]
entropy correction =  -0.038885252006916345
Extra cycle  E= -13.4037812562472  delta_E= 1.93e-08  |g|= 0.00014  |ddm|= 0.000439
entropy correction =  -0.038885252006916345
rks_ao.ne_frozen =  0
Set gradient conv threshold to 3.16228e-05
Initial guess from hcore.
HOMO:  -2.5708569793522553 LUMO:  -2.5703622027162267
Fermi energy:      -2.5712265090
[2.0000e+00 2.0000e+00 2.0000e+00 2.0000e+00 2.0000e+00 2.0000e+00
 2.0000e+00 1.9952e+00 9.6306e-01 9.1378e-01 6.0703e-02 5.8729e-02
 3.9970e-03 3.7551e-03 7.4027e-04]
tot grids = 190200
init E= -9.69352618975209
HOMO:  0.019852943663625777 LUMO:  0.022745491828746255
Fermi energy:       0.0196690460
[2.     2.     2.     2.     2.     2.     1.9949 1.3616 0.9816 0.7017
 0.449  0.2223 0.1119 0.084  0.0438 0.0357 0.0084 0.0027 0.0024]
entropy correction =  -0.034977480570597734
cycle= 1 E= -10.9844134015496  delta_E= -1.29  |g|= 2.09  |ddm|= 9.58
HOMO:  -0.45047421902065204 LUMO:  -0.4395582671623134
Fermi energy:      -0.4449873173
[2.     2.     2.     2.     2.     2.     1.9994 1.5768 1.4995 0.5048
 0.2028 0.18   0.0342 0.0023]
entropy correction =  -0.02373364662741987
cycle= 2 E= -11.0813345572519  delta_E= -0.0969  |g|= 2.12  |ddm|=  9.4
HOMO:  -0.29769010768259574 LUMO:  -0.28382421553280135
Fermi energy:      -0.2895428468
[2.     2.     2.     2.     1.9966 1.9861 1.9779 1.6979 1.6722 0.4833
 0.0684 0.0629 0.0485 0.0032 0.0029]
entropy correction =  -0.019648235428271474
cycle= 3 E= -12.290873257415  delta_E= -1.21  |g|= 0.892  |ddm|= 1.82
HOMO:  -0.2601405997523395 LUMO:  -0.25698596215375996
Fermi energy:      -0.2585198506
[2.0000e+00 2.0000e+00 2.0000e+00 2.0000e+00 1.9992e+00 1.9513e+00
 1.9057e+00 1.7571e+00 1.1607e+00 8.4780e-01 1.5505e-01 1.3832e-01
 8.2004e-02 1.8022e-03 9.9533e-04 1.5971e-04]
entropy correction =  -0.02747483642344975
cycle= 4 E= -11.4908998778422  delta_E=  0.8  |g|= 1.31  |ddm|= 2.13
HOMO:  -0.2384612575172572 LUMO:  -0.23234531832729446
Fermi energy:      -0.2358612007
[2.0000e+00 2.0000e+00 2.0000e+00 2.0000e+00 1.9702e+00 1.9341e+00
 1.8462e+00 1.2872e+00 1.2543e+00 6.6222e-01 6.5296e-01 2.8385e-01
 7.3894e-02 2.1498e-02 1.2959e-02 6.3647e-04]
entropy correction =  -0.037398304371399176
cycle= 5 E= -12.7638805864506  delta_E= -1.27  |g|= 0.128  |ddm|= 2.07
HOMO:  -0.21760837752649856 LUMO:  -0.21494725391122252
Fermi energy:      -0.2162878056
[2.0000e+00 2.0000e+00 2.0000e+00 2.0000e+00 1.9568e+00 1.9416e+00
 1.7710e+00 1.5542e+00 1.1313e+00 8.6674e-01 3.9604e-01 2.4267e-01
 1.1038e-01 1.6908e-02 1.1677e-02 6.4353e-04]
entropy correction =  -0.036594874352455516
cycle= 6 E= -12.5578623558806  delta_E= 0.206  |g|= 0.53  |ddm|= 1.39
HOMO:  -0.21771722862445017 LUMO:  -0.21335960916877927
Fermi energy:      -0.2151624432
[2.0000e+00 2.0000e+00 2.0000e+00 2.0000e+00 1.9293e+00 1.7909e+00
 1.7459e+00 1.2637e+00 1.2501e+00 8.2164e-01 7.1832e-01 3.5073e-01
 9.4622e-02 1.8869e-02 1.5112e-02 9.0708e-04]
entropy correction =  -0.042748463965409295
cycle= 7 E= -12.7748001772278  delta_E= -0.217  |g|= 0.0539  |ddm|= 1.12
HOMO:  -0.21805873534370185 LUMO:  -0.21411402398707444
Fermi energy:      -0.2157453328
[2.0000e+00 2.0000e+00 2.0000e+00 2.0000e+00 1.9364e+00 1.8722e+00
 1.7063e+00 1.2360e+00 1.2273e+00 8.3830e-01 6.8534e-01 3.7623e-01
 8.9377e-02 1.6341e-02 1.5461e-02 7.7962e-04]
entropy correction =  -0.04212864246225595
cycle= 8 E= -12.7710421873404  delta_E= 0.00376  |g|= 0.0919  |ddm|= 0.325
HOMO:  -0.21828853048803074 LUMO:  -0.21325983648729804
Fermi energy:      -0.2158721923
[2.0000e+00 2.0000e+00 2.0000e+00 2.0000e+00 1.9331e+00 1.8196e+00
 1.7867e+00 1.2485e+00 1.2370e+00 7.4455e-01 7.3349e-01 3.7528e-01
 8.9663e-02 1.6191e-02 1.5142e-02 7.9839e-04]
entropy correction =  -0.041940663520937824
cycle= 9 E= -12.7757104570696  delta_E= -0.00467  |g|= 0.0535  |ddm|= 0.27
HOMO:  -0.21774882750433877 LUMO:  -0.21292124154191694
Fermi energy:      -0.2154046376
[2.0000e+00 2.0000e+00 2.0000e+00 2.0000e+00 1.9313e+00 1.8152e+00
 1.8010e+00 1.2352e+00 1.2302e+00 7.5664e-01 7.3212e-01 3.7622e-01
 9.0102e-02 1.5942e-02 1.5305e-02 8.1287e-04]
entropy correction =  -0.04195471003724486
cycle= 10 E= -12.777409676019  delta_E= -0.0017  |g|= 0.0246  |ddm|= 0.121
HOMO:  -0.21802189386398907 LUMO:  -0.21311313860006162
Fermi energy:      -0.2156619575
[2.0000e+00 2.0000e+00 2.0000e+00 2.0000e+00 1.9311e+00 1.8076e+00
 1.8033e+00 1.2358e+00 1.2317e+00 7.5050e-01 7.4403e-01 3.7389e-01
 8.9970e-02 1.6017e-02 1.5305e-02 8.0862e-04]
entropy correction =  -0.04201214378815553
cycle= 11 E= -12.7776277721999  delta_E= -0.000218  |g|= 0.0187  |ddm|= 0.0586
HOMO:  -0.21833627281206627 LUMO:  -0.21345084020634494
Fermi energy:      -0.2159787385
[2.0000e+00 2.0000e+00 2.0000e+00 2.0000e+00 1.9311e+00 1.8042e+00
 1.8013e+00 1.2361e+00 1.2315e+00 7.5246e-01 7.4935e-01 3.7214e-01
 8.9577e-02 1.5720e-02 1.5666e-02 8.0208e-04]
entropy correction =  -0.042072030719063215
cycle= 12 E= -12.7778771436361  delta_E= -0.000249  |g|= 0.00465  |ddm|= 0.037
HOMO:  -0.21839634357349885 LUMO:  -0.2135106290627253
Fermi energy:      -0.2160320253
[2.0000e+00 2.0000e+00 2.0000e+00 2.0000e+00 1.9312e+00 1.8045e+00
 1.8013e+00 1.2347e+00 1.2321e+00 7.5307e-01 7.4906e-01 3.7239e-01
 8.9467e-02 1.5765e-02 1.5585e-02 7.9959e-04]
entropy correction =  -0.04206878642518766
cycle= 13 E= -12.7778829921779  delta_E= -5.85e-06  |g|= 0.00401  |ddm|= 0.0136
HOMO:  -0.2184931133975966 LUMO:  -0.21361375537356903
Fermi energy:      -0.2161249316
[2.0000e+00 2.0000e+00 2.0000e+00 2.0000e+00 1.9313e+00 1.8037e+00
 1.8010e+00 1.2338e+00 1.2325e+00 7.5403e-01 7.4977e-01 3.7250e-01
 8.9316e-02 1.5819e-02 1.5494e-02 7.9588e-04]
entropy correction =  -0.04208341128896374
cycle= 14 E= -12.7778927201249  delta_E= -9.73e-06  |g|= 0.00179  |ddm|= 0.0102
HOMO:  -0.21839742253295436 LUMO:  -0.2134789445990308
Fermi energy:      -0.2160276613
[2.0000e+00 2.0000e+00 2.0000e+00 2.0000e+00 1.9312e+00 1.8047e+00
 1.8031e+00 1.2341e+00 1.2326e+00 7.5051e-01 7.4971e-01 3.7257e-01
 8.9388e-02 1.5792e-02 1.5544e-02 8.0076e-04]
entropy correction =  -0.04204296804783231
cycle= 15 E= -12.7778958121176  delta_E= -3.09e-06  |g|= 0.000517  |ddm|= 0.00559
HOMO:  -0.2184033627018667 LUMO:  -0.21348699831407292
Fermi energy:      -0.2160312326
[2.0000e+00 2.0000e+00 2.0000e+00 2.0000e+00 1.9312e+00 1.8042e+00
 1.8024e+00 1.2342e+00 1.2329e+00 7.5093e-01 7.5021e-01 3.7261e-01
 8.9361e-02 1.5796e-02 1.5549e-02 8.0033e-04]
entropy correction =  -0.04205875597391727
cycle= 16 E= -12.777895982729  delta_E= -1.71e-07  |g|= 0.000153  |ddm|= 0.00133
HOMO:  -0.21840499534891433 LUMO:  -0.21349162367989438
Fermi energy:      -0.2160337485
[2.0000e+00 2.0000e+00 2.0000e+00 2.0000e+00 1.9312e+00 1.8044e+00
 1.8022e+00 1.2342e+00 1.2328e+00 7.5113e-01 7.5001e-01 3.7259e-01
 8.9360e-02 1.5794e-02 1.5550e-02 8.0026e-04]
entropy correction =  -0.042057769526036334
cycle= 17 E= -12.7778959105223  delta_E= 7.22e-08  |g|= 0.000334  |ddm|= 0.00106
HOMO:  -0.21840458594388618 LUMO:  -0.2134886523020134
Fermi energy:      -0.2160332176
[2.0000e+00 2.0000e+00 2.0000e+00 2.0000e+00 1.9312e+00 1.8043e+00
 1.8024e+00 1.2341e+00 1.2328e+00 7.5090e-01 7.5015e-01 3.7261e-01
 8.9355e-02 1.5791e-02 1.5549e-02 8.0018e-04]
entropy correction =  -0.042056442020034945
cycle= 18 E= -12.7778959970193  delta_E= -8.65e-08  |g|= 7.87e-05  |ddm|= 0.000805
HOMO:  -0.21840375965554445 LUMO:  -0.21348735808082334
Fermi energy:      -0.2160322233
[2.0000e+00 2.0000e+00 2.0000e+00 2.0000e+00 1.9312e+00 1.8042e+00
 1.8026e+00 1.2341e+00 1.2328e+00 7.5087e-01 7.5016e-01 3.7260e-01
 8.9356e-02 1.5796e-02 1.5546e-02 8.0025e-04]
entropy correction =  -0.04205618328868728
cycle= 19 E= -12.7778959689566  delta_E= 2.81e-08  |g|= 0.000211  |ddm|= 0.00051
HOMO:  -0.21840493166215003 LUMO:  -0.21348888422841972
Fermi energy:      -0.2160333610
[2.0000e+00 2.0000e+00 2.0000e+00 2.0000e+00 1.9312e+00 1.8042e+00
 1.8025e+00 1.2341e+00 1.2328e+00 7.5091e-01 7.5018e-01 3.7260e-01
 8.9356e-02 1.5794e-02 1.5548e-02 8.0021e-04]
entropy correction =  -0.04205691555728357
cycle= 20 E= -12.7778960023661  delta_E= -3.34e-08  |g|= 1.83e-05  |ddm|= 0.000385
HOMO:  -0.21840571578189844 LUMO:  -0.21348961717361953
Fermi energy:      -0.2160341808
[2.0000e+00 2.0000e+00 2.0000e+00 2.0000e+00 1.9312e+00 1.8042e+00
 1.8025e+00 1.2341e+00 1.2328e+00 7.5090e-01 7.5021e-01 3.7259e-01
 8.9355e-02 1.5793e-02 1.5548e-02 8.0018e-04]
entropy correction =  -0.04205716976779455
cycle= 21 E= -12.7778960012256  delta_E= 1.14e-09  |g|= 4.22e-05  |ddm|= 9.95e-05
HOMO:  -0.21840519380610185 LUMO:  -0.2134890960444585
Fermi energy:      -0.2160336515
[2.0000e+00 2.0000e+00 2.0000e+00 2.0000e+00 1.9312e+00 1.8043e+00
 1.8025e+00 1.2341e+00 1.2328e+00 7.5090e-01 7.5018e-01 3.7260e-01
 8.9355e-02 1.5794e-02 1.5547e-02 8.0020e-04]
entropy correction =  -0.04205666413708472
cycle= 22 E= -12.7778960023752  delta_E= -1.15e-09  |g|= 1.75e-05  |ddm|= 8.73e-05
HOMO:  -0.21840530808494482 LUMO:  -0.2134893064706112
Fermi energy:      -0.2160337370
[2.0000e+00 2.0000e+00 2.0000e+00 2.0000e+00 1.9312e+00 1.8043e+00
 1.8025e+00 1.2341e+00 1.2328e+00 7.5091e-01 7.5017e-01 3.7260e-01
 8.9355e-02 1.5794e-02 1.5548e-02 8.0020e-04]
entropy correction =  -0.04205677175221994
cycle= 23 E= -12.7778960025362  delta_E= -1.61e-10  |g|= 9.75e-06  |ddm|= 4.42e-05
HOMO:  -0.21840494906832633 LUMO:  -0.21348849360078925
Fermi energy:      -0.2160334057
[2.0000e+00 2.0000e+00 2.0000e+00 2.0000e+00 1.9312e+00 1.8042e+00
 1.8025e+00 1.2341e+00 1.2328e+00 7.5086e-01 7.5021e-01 3.7260e-01
 8.9355e-02 1.5794e-02 1.5548e-02 8.0021e-04]
entropy correction =  -0.04205666703246544
Extra cycle  E= -12.7778959994733  delta_E= 3.06e-09  |g|= 6.3e-05  |ddm|= 0.00014
degenerate subspace detected:
nsub = 3
subspace 1:
5, 6, 
subspace 2:
8, 9, 
subspace 3:
11, 12, 

 Adding contributions from fluctuation of occupation numbers.
degenerate subspace detected:
nsub = 4
subspace 1:
6, 7, 
subspace 2:
8, 9, 
subspace 3:
10, 11, 
subspace 4:
14, 15, 

 Adding contributions from fluctuation of occupation numbers.
entropy correction =  -0.04205666703246544
2-norm (grad),       max(grad):
0.048479549715752385 ,  0.0033023667162679973
time of hessian construction : 32.870  (cpu),  1.389  (wall) 
time of hessian construction : 23.490  (cpu),  0.589  (wall) 
f =  0.0011751333703210534
|umat| =  3.250918852322595
rks_ao.ne_frozen =  0
Set gradient conv threshold to 3.16228e-05
Initial guess from hcore.
HOMO:  -3.6322897205855598 LUMO:  -3.580764786699338
Fermi energy:      -3.6065272536
[2.     2.     2.     2.     2.     2.     2.     2.     1.9885 0.0115]
tot grids = 190200
init E= -25.1139999457592
HOMO:  -0.4330871285435752 LUMO:  -0.389277497160693
Fermi energy:      -0.4102306948
[2.     2.     2.     2.     2.     2.     2.     1.9906 1.9795 0.0298]
entropy correction =  -0.0016451903862511933
cycle= 1 E= -26.6524693821274  delta_E= -1.54  |g|=  2.3  |ddm|= 35.7
HOMO:  -1.0513618251954573 LUMO:  -0.9999014467189834
Fermi energy:      -1.0256316134
[2.     2.     2.     2.     2.     2.     2.     2.     1.9884 0.0116]
entropy correction =  -0.0007118999573402931
cycle= 2 E= -27.573964688692  delta_E= -0.921  |g|= 1.56  |ddm|= 17.8
HOMO:  -0.7204778943499087 LUMO:  -0.7079018813956196
Fermi energy:      -0.7141775811
[2.0000e+00 2.0000e+00 2.0000e+00 2.0000e+00 2.0000e+00 2.0000e+00
 2.0000e+00 1.9980e+00 1.5581e+00 4.4362e-01 2.8652e-04]
entropy correction =  -0.010665787584157312
cycle= 3 E= -28.2893340708424  delta_E= -0.715  |g|= 0.554  |ddm|= 10.2
HOMO:  -0.7063570430968497 LUMO:  -0.6980460873829956
Fermi energy:      -0.7021372310
[2.     2.     2.     2.     2.     2.     2.     1.9891 1.3986 0.6123]
entropy correction =  -0.012618105366505292
cycle= 4 E= -28.3673106260865  delta_E= -0.078  |g|= 0.279  |ddm|= 2.59
HOMO:  -0.7266413485122066 LUMO:  -0.7235868992120166
Fermi energy:      -0.7251046888
[2.     2.     2.     2.     2.     2.     2.     1.9981 1.1525 0.8494]
entropy correction =  -0.013711705120413024
cycle= 5 E= -28.372149369112  delta_E= -0.00484  |g|= 0.248  |ddm|= 1.91
HOMO:  -0.7380309336449291 LUMO:  -0.7270228551671775
Fermi energy:      -0.7321600631
[2.     2.     2.     2.     2.     2.     2.     1.945  1.5278 0.5272]
entropy correction =  -0.012494369998426546
cycle= 6 E= -28.3988711934961  delta_E= -0.0267  |g|= 0.0617  |ddm|= 1.18
HOMO:  -0.7369707616807615 LUMO:  -0.7270894715016377
Fermi energy:      -0.7316903388
[2.     2.     2.     2.     2.     2.     2.     1.9462 1.4839 0.5698]
entropy correction =  -0.012924350053965993
cycle= 7 E= -28.4004050138232  delta_E= -0.00153  |g|= 0.0113  |ddm|= 0.297
HOMO:  -0.7368704201271775 LUMO:  -0.72764039186166
Fermi energy:      -0.7319060128
[2.     2.     2.     2.     2.     2.     2.     1.9431 1.4593 0.5976]
entropy correction =  -0.013229120481028324
cycle= 8 E= -28.4004645196997  delta_E= -5.95e-05  |g|= 0.00402  |ddm|= 0.0892
HOMO:  -0.7371611421632088 LUMO:  -0.7275567529560182
Fermi energy:      -0.7320060850
[2.     2.     2.     2.     2.     2.     2.     1.9435 1.4742 0.5823]
entropy correction =  -0.013080481233309165
cycle= 9 E= -28.4004754077113  delta_E= -1.09e-05  |g|= 0.000991  |ddm|= 0.0354
HOMO:  -0.7372186251430843 LUMO:  -0.727608150003703
Fermi energy:      -0.7320615446
[2.     2.     2.     2.     2.     2.     2.     1.9437 1.4744 0.5819]
entropy correction =  -0.013074996260331803
cycle= 10 E= -28.4004760365307  delta_E= -6.29e-07  |g|= 0.000304  |ddm|= 0.0111
HOMO:  -0.7371924260815907 LUMO:  -0.7275934318519843
Fermi energy:      -0.7320410217
[2.     2.     2.     2.     2.     2.     2.     1.9436 1.4739 0.5824]
entropy correction =  -0.013080097229114249
cycle= 11 E= -28.4004761023451  delta_E= -6.58e-08  |g|= 3.6e-05  |ddm|= 0.003
HOMO:  -0.737189690143931 LUMO:  -0.7275891713562955
Fermi energy:      -0.7320376547
[2.     2.     2.     2.     2.     2.     2.     1.9436 1.474  0.5823]
entropy correction =  -0.013079077487593377
cycle= 12 E= -28.4004761028284  delta_E= -4.83e-10  |g|= 1.41e-05  |ddm|= 0.000281
HOMO:  -0.7371909663518896 LUMO:  -0.7275917872041927
Fermi energy:      -0.7320394655
[2.     2.     2.     2.     2.     2.     2.     1.9436 1.4739 0.5824]
entropy correction =  -0.013080029326789934
Extra cycle  E= -28.4004761016701  delta_E= 1.16e-09  |g|= 4.62e-05  |ddm|= 0.000348
entropy correction =  -0.013080029326789934
rks_ao.ne_frozen =  0
Set gradient conv threshold to 3.16228e-05
Initial guess from hcore.
HOMO:  -2.7637606053888635 LUMO:  -2.727303811190365
Fermi energy:      -2.7457960441
[2.0000e+00 2.0000e+00 2.0000e+00 2.0000e+00 2.0000e+00 2.0000e+00
 2.0000e+00 2.0000e+00 1.9464e+00 4.8327e-02 4.2216e-03 1.0154e-03]
tot grids = 190200
init E= -26.7554568272121
HOMO:  -0.4058967984061122 LUMO:  -0.3816560518037206
Fermi energy:      -0.3937742995
[2.     2.     2.     2.     2.     2.     2.     1.9999 1.8374 0.1628]
entropy correction =  -0.005648203136730864
cycle= 1 E= -27.7673432672437  delta_E= -1.01  |g|=  1.6  |ddm|= 17.8
HOMO:  -0.6008302810623558 LUMO:  -0.5717300838658437
Fermi energy:      -0.5862803590
[2.     2.     2.     2.     2.     2.     2.     2.     1.8967 0.1033]
entropy correction =  -0.004068021233738923
cycle= 2 E= -26.8515433321879  delta_E= 0.916  |g|= 2.31  |ddm|= 11.2
HOMO:  -0.5353892523156407 LUMO:  -0.5018714247038835
Fermi energy:      -0.5186302408
[2.     2.     2.     2.     2.     2.     2.     2.     1.9323 0.0677]
entropy correction =  -0.0029569136801650487
cycle= 3 E= -28.5141417979824  delta_E= -1.66  |g|= 0.347  |ddm|= 7.72
HOMO:  -0.5294513010516394 LUMO:  -0.49607474124429535
Fermi energy:      -0.5127626704
[2.     2.     2.     2.     2.     2.     2.     2.     1.9314 0.0686]
entropy correction =  -0.0029884534741788198
cycle= 4 E= -28.4657378924463  delta_E= 0.0484  |g|= 0.464  |ddm|= 4.21
HOMO:  -0.5228263894632071 LUMO:  -0.5021002479722092
Fermi energy:      -0.5124628740
[2.     2.     2.     2.     2.     2.     2.     2.     1.7764 0.2236]
entropy correction =  -0.007006831124837305
cycle= 5 E= -28.5682195024426  delta_E= -0.102  |g|= 0.086  |ddm|= 2.31
HOMO:  -0.5241886301058655 LUMO:  -0.5066270628927606
Fermi energy:      -0.5154075511
[2.     2.     2.     2.     2.     2.     2.     2.     1.7055 0.2946]
entropy correction =  -0.008360768753493161
cycle= 6 E= -28.5700312160968  delta_E= -0.00181  |g|= 0.0804  |ddm|= 0.656
HOMO:  -0.5261858895052298 LUMO:  -0.5077578936687424
Fermi energy:      -0.5169715325
[2.     2.     2.     2.     2.     2.     2.     2.     1.7266 0.2735]
entropy correction =  -0.00798134443401684
cycle= 7 E= -28.5723139104868  delta_E= -0.00228  |g|= 0.00957  |ddm|= 0.304
HOMO:  -0.5259180621952909 LUMO:  -0.5069423445182222
Fermi energy:      -0.5164298063
[2.     2.     2.     2.     2.     2.     2.     2.     1.7393 0.2608]
entropy correction =  -0.007744456564408555
cycle= 8 E= -28.5723437580696  delta_E= -2.98e-05  |g|= 0.00528  |ddm|= 0.0705
HOMO:  -0.5257136279571664 LUMO:  -0.506986322756498
Fermi energy:      -0.5163496001
[2.     2.     2.     2.     2.     2.     2.     2.     1.7336 0.2665]
entropy correction =  -0.007851552876287993
cycle= 9 E= -28.5723591325038  delta_E= -1.54e-05  |g|= 0.000812  |ddm|= 0.0316
HOMO:  -0.5257664716419158 LUMO:  -0.507025049718607
Fermi energy:      -0.5163953822
[2.     2.     2.     2.     2.     2.     2.     2.     1.7339 0.2661]
entropy correction =  -0.007845462328496594
cycle= 10 E= -28.5723594088368  delta_E= -2.76e-07  |g|= 0.000313  |ddm|= 0.00458
HOMO:  -0.5257546161008777 LUMO:  -0.5070289951945863
Fermi energy:      -0.5163914288
[2.     2.     2.     2.     2.     2.     2.     2.     1.7335 0.2665]
entropy correction =  -0.007852289549599899
cycle= 11 E= -28.5723594440552  delta_E= -3.52e-08  |g|= 8.56e-05  |ddm|= 0.00136
HOMO:  -0.5257614118784236 LUMO:  -0.5070340070195685
Fermi energy:      -0.5163973324
[2.     2.     2.     2.     2.     2.     2.     2.     1.7336 0.2665]
entropy correction =  -0.007851519196793857
cycle= 12 E= -28.5723594483537  delta_E= -4.3e-09  |g|= 6.41e-06  |ddm|= 0.000477
HOMO:  -0.5257612532723379 LUMO:  -0.5070341614772407
Fermi energy:      -0.5163973303
[2.     2.     2.     2.     2.     2.     2.     2.     1.7336 0.2665]
entropy correction =  -0.007851654515220772
cycle= 13 E= -28.5723594483736  delta_E= -1.99e-11  |g|= 2.09e-06  |ddm|= 5.49e-05
HOMO:  -0.5257614603611439 LUMO:  -0.5070340806941843
Fermi energy:      -0.5163973934
[2.     2.     2.     2.     2.     2.     2.     2.     1.7336 0.2665]
entropy correction =  -0.007851530059567026
Extra cycle  E= -28.5723594483419  delta_E= 3.18e-11  |g|= 8.53e-06  |ddm|= 5.98e-05
 Adding contributions from fluctuation of occupation numbers.
 Adding contributions from fluctuation of occupation numbers.
entropy correction =  -0.007851530059567026
2-norm (grad),       max(grad):
234.78635955314238 ,  52.55340563567271
time of hessian construction : 12.920  (cpu),  0.324  (wall) 
time of hessian construction : 12.000  (cpu),  0.301  (wall) 
f =  27562.317316108725
|umat| =  2.7562086592765342
rks_ao.ne_frozen =  0
Set gradient conv threshold to 3.16228e-05
Initial guess from hcore.
HOMO:  -3.5059476839711876 LUMO:  -3.312360105072212
Fermi energy:      -3.4073950933
[2. 2. 2. 2. 2. 2. 2. 2. 2.]
tot grids = 190200
init E= -10.1226742483804
HOMO:  -0.06808231800422165 LUMO:  -0.06764673099226796
Fermi energy:      -0.0725538172
[2.     2.     2.     2.     2.     2.     1.9951 1.9522 0.5804 0.5452
 0.4744 0.4526]
entropy correction =  -0.024009755141780675
cycle= 1 E= -10.2330006641192  delta_E= -0.11  |g|= 2.75  |ddm|= 7.87
HOMO:  -0.7782268987314215 LUMO:  -0.6487725558523576
Fermi energy:      -0.7121929714
[2. 2. 2. 2. 2. 2. 2. 2. 2.]
entropy correction =  -1.0279875245598661e-06
cycle= 2 E= -11.5448854962716  delta_E= -1.31  |g|= 2.03  |ddm|= 6.47
HOMO:  -0.45049749258128746 LUMO:  -0.417656886574452
Fermi energy:      -0.4347737079
[2.0000e+00 2.0000e+00 2.0000e+00 2.0000e+00 1.9997e+00 1.9970e+00
 1.9970e+00 1.9186e+00 1.9174e+00 6.3146e-02 6.1936e-02 2.7570e-02
 1.7053e-02 6.5562e-04]
entropy correction =  -0.007695159966363575
cycle= 3 E= -13.2354576709285  delta_E= -1.69  |g|= 0.545  |ddm|= 3.79
HOMO:  -0.3660216582582922 LUMO:  -0.3653812824118562
Fermi energy:      -0.3682235154
[2.0000e+00 1.9985e+00 1.9948e+00 1.9941e+00 1.9768e+00 1.9756e+00
 1.8863e+00 1.2661e+00 7.8330e-01 7.2319e-01 6.0073e-01 5.5716e-01
 2.4322e-01 2.0042e-04]
entropy correction =  -0.03946584183004456
cycle= 4 E= -13.3678161883604  delta_E= -0.132  |g|= 0.207  |ddm|= 1.69
HOMO:  -0.3689036869123776 LUMO:  -0.36339819117343325
Fermi energy:      -0.3679573272
[2.0000e+00 1.9998e+00 1.9985e+00 1.9982e+00 1.9831e+00 1.9774e+00
 1.9478e+00 1.4316e+00 1.0944e+00 5.7325e-01 4.6926e-01 4.4754e-01
 7.8849e-02 1.6701e-04]
entropy correction =  -0.033735662229295756
cycle= 5 E= -13.0094655027301  delta_E= 0.358  |g|= 0.752  |ddm|= 1.39
HOMO:  -0.37356640092648025 LUMO:  -0.3693311452082678
Fermi energy:      -0.3720659149
[2.0000e+00 1.9998e+00 1.9964e+00 1.9940e+00 1.9731e+00 1.9674e+00
 1.9615e+00 1.1705e+00 1.1489e+00 7.3314e-01 4.9407e-01 4.6967e-01
 9.1334e-02 2.0462e-04]
entropy correction =  -0.03592766481562849
cycle= 6 E= -13.3894023876122  delta_E= -0.38  |g|= 0.135  |ddm|= 1.05
HOMO:  -0.37229415949200906 LUMO:  -0.3712854385871378
Fermi energy:      -0.3716562045
[2.0000e+00 1.9993e+00 1.9956e+00 1.9852e+00 1.9771e+00 1.9498e+00
 1.9272e+00 1.2303e+00 1.0637e+00 9.6294e-01 5.4792e-01 2.9184e-01
 6.8825e-02 2.2320e-04]
entropy correction =  -0.0360208336790492
cycle= 7 E= -13.3740721096701  delta_E= 0.0153  |g|= 0.167  |ddm|= 0.593
HOMO:  -0.37090940007077033 LUMO:  -0.3680918726860518
Fermi energy:      -0.3702729108
[2.0000e+00 1.9989e+00 1.9907e+00 1.9887e+00 1.9613e+00 1.9552e+00
 1.9386e+00 1.1706e+00 1.0636e+00 7.8529e-01 5.4043e-01 5.2257e-01
 8.3835e-02 2.4025e-04]
entropy correction =  -0.03781553482926005
cycle= 8 E= -13.3991355202436  delta_E= -0.0251  |g|= 0.0763  |ddm|= 0.499
HOMO:  -0.36914439098595137 LUMO:  -0.36691291617063887
Fermi energy:      -0.3686792899
[2.0000e+00 1.9988e+00 1.9896e+00 1.9868e+00 1.9640e+00 1.9549e+00
 1.9396e+00 1.1014e+00 1.0465e+00 8.2518e-01 5.5849e-01 5.4742e-01
 8.7209e-02 2.3596e-04]
entropy correction =  -0.03828343963149687
cycle= 9 E= -13.3947908783756  delta_E= 0.00434  |g|= 0.111  |ddm|= 0.268
HOMO:  -0.3652368554438973 LUMO:  -0.36468581816108825
Fermi energy:      -0.3658178702
[2.0000e+00 1.9987e+00 1.9864e+00 1.9818e+00 1.9636e+00 1.9631e+00
 1.9374e+00 1.0381e+00 9.4196e-01 8.8728e-01 6.1699e-01 5.8923e-01
 9.5186e-02 2.2849e-04]
entropy correction =  -0.039073410199844345
cycle= 10 E= -13.4015223730164  delta_E= -0.00673  |g|= 0.0515  |ddm|= 0.242
HOMO:  -0.36496295943994406 LUMO:  -0.3644944400607919
Fermi energy:      -0.3653926876
[2.0000e+00 1.9987e+00 1.9858e+00 1.9839e+00 1.9639e+00 1.9618e+00
 1.9392e+00 9.9605e-01 9.5705e-01 9.1042e-01 6.0786e-01 5.9568e-01
 9.9401e-02 2.2634e-04]
entropy correction =  -0.03911801301941947
cycle= 11 E= -13.401546832737  delta_E= -2.45e-05  |g|= 0.0565  |ddm|= 0.165
HOMO:  -0.3651436778921104 LUMO:  -0.36439704932604505
Fermi energy:      -0.3654767818
[2.0000e+00 1.9988e+00 1.9863e+00 1.9841e+00 1.9637e+00 1.9629e+00
 1.9409e+00 9.9689e-01 9.6670e-01 8.9244e-01 6.1004e-01 5.9820e-01
 9.8804e-02 2.2852e-04]
entropy correction =  -0.03904794542937307
cycle= 12 E= -13.4035229791141  delta_E= -0.00198  |g|= 0.0162  |ddm|= 0.122
HOMO:  -0.36645438058650603 LUMO:  -0.3651347570641358
Fermi energy:      -0.3663944160
[2.0000e+00 1.9988e+00 1.9876e+00 1.9856e+00 1.9620e+00 1.9616e+00
 1.9393e+00 1.0104e+00 1.0060e+00 8.7470e-01 5.8924e-01 5.8743e-01
 9.7149e-02 2.3308e-04]
entropy correction =  -0.03889237514736215
cycle= 13 E= -13.4037745697537  delta_E= -0.000252  |g|= 0.00255  |ddm|= 0.0494
HOMO:  -0.36654561963873933 LUMO:  -0.36520171569397974
Fermi energy:      -0.3664848928
[2.0000e+00 1.9988e+00 1.9873e+00 1.9858e+00 1.9626e+00 1.9612e+00
 1.9398e+00 1.0120e+00 1.0061e+00 8.7238e-01 5.9031e-01 5.8688e-01
 9.6689e-02 2.3250e-04]
entropy correction =  -0.03887490125533806
cycle= 14 E= -13.4037591892673  delta_E= 1.54e-05  |g|= 0.0045  |ddm|= 0.0182
HOMO:  -0.3665658142791481 LUMO:  -0.3651975281200005
Fermi energy:      -0.3664935446
[2.0000e+00 1.9988e+00 1.9874e+00 1.9855e+00 1.9622e+00 1.9618e+00
 1.9403e+00 1.0101e+00 1.0072e+00 8.7112e-01 5.9008e-01 5.8854e-01
 9.6540e-02 2.3174e-04]
entropy correction =  -0.03886491290969553
cycle= 15 E= -13.4037789354455  delta_E= -1.97e-05  |g|= 0.00139  |ddm|= 0.0149
HOMO:  -0.3665925844940329 LUMO:  -0.36522228786045347
Fermi energy:      -0.3665102159
[2.0000e+00 1.9988e+00 1.9874e+00 1.9855e+00 1.9620e+00 1.9618e+00
 1.9398e+00 1.0095e+00 1.0082e+00 8.7191e-01 5.8930e-01 5.8884e-01
 9.6635e-02 2.3247e-04]
entropy correction =  -0.038879566683793505
cycle= 16 E= -13.4037801172534  delta_E= -1.18e-06  |g|= 0.00122  |ddm|= 0.00511
HOMO:  -0.36659360048906436 LUMO:  -0.3652305624814085
Fermi energy:      -0.3665157022
[2.0000e+00 1.9988e+00 1.9874e+00 1.9855e+00 1.9622e+00 1.9615e+00
 1.9396e+00 1.0099e+00 1.0078e+00 8.7219e-01 5.9002e-01 5.8812e-01
 9.6651e-02 2.3274e-04]
entropy correction =  -0.03888570558494441
cycle= 17 E= -13.403778142396  delta_E= 1.97e-06  |g|= 0.0018  |ddm|= 0.00604
HOMO:  -0.36660197752660834 LUMO:  -0.36522662168549686
Fermi energy:      -0.3665151301
[2.0000e+00 1.9988e+00 1.9874e+00 1.9855e+00 1.9620e+00 1.9618e+00
 1.9398e+00 1.0092e+00 1.0087e+00 8.7186e-01 5.8931e-01 5.8877e-01
 9.6626e-02 2.3250e-04]
entropy correction =  -0.03887948634968103
cycle= 18 E= -13.403779222915  delta_E= -1.08e-06  |g|= 0.00163  |ddm|= 0.00621
HOMO:  -0.3665811145952303 LUMO:  -0.3652168294644381
Fermi energy:      -0.3665021449
[2.0000e+00 1.9988e+00 1.9874e+00 1.9855e+00 1.9621e+00 1.9618e+00
 1.9398e+00 1.0092e+00 1.0079e+00 8.7217e-01 5.8964e-01 5.8895e-01
 9.6654e-02 2.3252e-04]
entropy correction =  -0.03888396929657539
cycle= 19 E= -13.4037812327893  delta_E= -2.01e-06  |g|= 0.000246  |ddm|= 0.00305
HOMO:  -0.3665638736156547 LUMO:  -0.3652047094395982
Fermi energy:      -0.3664848400
[2.0000e+00 1.9988e+00 1.9873e+00 1.9855e+00 1.9621e+00 1.9618e+00
 1.9397e+00 1.0082e+00 1.0079e+00 8.7268e-01 5.8997e-01 5.8911e-01
 9.6715e-02 2.3254e-04]
entropy correction =  -0.03888921654452259
cycle= 20 E= -13.4037792001524  delta_E= 2.03e-06  |g|= 0.00173  |ddm|= 0.00324
HOMO:  -0.3665680093937305 LUMO:  -0.36520725979546215
Fermi energy:      -0.3664885518
[2.0000e+00 1.9988e+00 1.9874e+00 1.9855e+00 1.9621e+00 1.9618e+00
 1.9398e+00 1.0084e+00 1.0079e+00 8.7257e-01 5.8993e-01 5.8893e-01
 9.6713e-02 2.3247e-04]
entropy correction =  -0.038886502147692396
cycle= 21 E= -13.403781148842  delta_E= -1.95e-06  |g|= 0.000402  |ddm|= 0.00299
HOMO:  -0.3665685912240232 LUMO:  -0.36520917298957833
Fermi energy:      -0.3664906514
[2.0000e+00 1.9988e+00 1.9874e+00 1.9855e+00 1.9621e+00 1.9618e+00
 1.9398e+00 1.0087e+00 1.0078e+00 8.7255e-01 5.8980e-01 5.8898e-01
 9.6712e-02 2.3249e-04]
entropy correction =  -0.038886483621939416
cycle= 22 E= -13.4037812895928  delta_E= -1.41e-07  |g|= 4.24e-05  |ddm|= 0.000939
HOMO:  -0.366573044099731 LUMO:  -0.3652116152788411
Fermi energy:      -0.3664938792
[2.0000e+00 1.9988e+00 1.9874e+00 1.9855e+00 1.9621e+00 1.9618e+00
 1.9398e+00 1.0087e+00 1.0079e+00 8.7247e-01 5.8974e-01 5.8894e-01
 9.6704e-02 2.3250e-04]
entropy correction =  -0.03888564335687801
cycle= 23 E= -13.4037812909409  delta_E= -1.35e-09  |g|= 2.34e-05  |ddm|= 0.000132
HOMO:  -0.36657292615993387 LUMO:  -0.3652113677232444
Fermi energy:      -0.3664938992
[2.0000e+00 1.9988e+00 1.9874e+00 1.9855e+00 1.9621e+00 1.9618e+00
 1.9398e+00 1.0087e+00 1.0079e+00 8.7245e-01 5.8975e-01 5.8894e-01
 9.6699e-02 2.3249e-04]
entropy correction =  -0.03888546581846905
cycle= 24 E= -13.4037812907719  delta_E= 1.69e-10  |g|= 2.54e-05  |ddm|= 0.000109
HOMO:  -0.36657574483896604 LUMO:  -0.36521262557202966
Fermi energy:      -0.3664954230
[2.0000e+00 1.9988e+00 1.9874e+00 1.9855e+00 1.9621e+00 1.9618e+00
 1.9398e+00 1.0087e+00 1.0080e+00 8.7242e-01 5.8966e-01 5.8898e-01
 9.6697e-02 2.3250e-04]
entropy correction =  -0.03888525665617664
Extra cycle  E= -13.4037812690096  delta_E= 2.18e-08  |g|= 0.000148  |ddm|= 0.000467
entropy correction =  -0.03888525665617664
rks_ao.ne_frozen =  0
Set gradient conv threshold to 3.16228e-05
Initial guess from hcore.
HOMO:  -2.5708569808299138 LUMO:  -2.570362216901055
Fermi energy:      -2.5712265156
[2.0000e+00 2.0000e+00 2.0000e+00 2.0000e+00 2.0000e+00 2.0000e+00
 2.0000e+00 1.9952e+00 9.6306e-01 9.1378e-01 6.0703e-02 5.8729e-02
 3.9970e-03 3.7551e-03 7.4027e-04]
tot grids = 190200
init E= -9.6935261862516
HOMO:  0.01985295383402409 LUMO:  0.022745506091920477
Fermi energy:       0.0196690460
[2.     2.     2.     2.     2.     2.     1.9949 1.3616 0.9816 0.7017
 0.449  0.2223 0.1119 0.084  0.0438 0.0357 0.0084 0.0027 0.0024]
entropy correction =  -0.03497749099903102
cycle= 1 E= -10.9844135972698  delta_E= -1.29  |g|= 2.09  |ddm|= 9.58
HOMO:  -0.4504739999139911 LUMO:  -0.43955821179740323
Fermi energy:      -0.4449871991
[2.     2.     2.     2.     2.     2.     1.9994 1.5768 1.4995 0.5048
 0.2028 0.18   0.0342 0.0023]
entropy correction =  -0.023733866677301565
cycle= 2 E= -11.0813435969346  delta_E= -0.0969  |g|= 2.12  |ddm|=  9.4
HOMO:  -0.2976882800406588 LUMO:  -0.28382186243504287
Fermi energy:      -0.2895411869
[2.     2.     2.     2.     1.9966 1.9861 1.9779 1.6979 1.6722 0.4832
 0.0685 0.0629 0.0486 0.0032 0.0029]
entropy correction =  -0.019648833526232198
cycle= 3 E= -12.2909420411669  delta_E= -1.21  |g|= 0.892  |ddm|= 1.82
HOMO:  -0.26013170870990115 LUMO:  -0.2569771615299541
Fermi energy:      -0.2585116302
[2.0000e+00 2.0000e+00 2.0000e+00 2.0000e+00 1.9992e+00 1.9513e+00
 1.9056e+00 1.7570e+00 1.1606e+00 8.4775e-01 1.5515e-01 1.3845e-01
 8.2017e-02 1.8017e-03 9.9553e-04 1.5972e-04]
entropy correction =  -0.02747920587528423
cycle= 4 E= -11.4909387636528  delta_E=  0.8  |g|= 1.31  |ddm|= 2.13
HOMO:  -0.23845912940585368 LUMO:  -0.2323436226768208
Fermi energy:      -0.2358594365
[2.0000e+00 2.0000e+00 2.0000e+00 2.0000e+00 1.9702e+00 1.9341e+00
 1.8462e+00 1.2872e+00 1.2543e+00 6.6222e-01 6.5298e-01 2.8386e-01
 7.3899e-02 2.1497e-02 1.2960e-02 6.3653e-04]
entropy correction =  -0.03739845336177664
cycle= 5 E= -12.7638867086567  delta_E= -1.27  |g|= 0.128  |ddm|= 2.07
HOMO:  -0.21760530568350892 LUMO:  -0.21494813100000174
Fermi energy:      -0.2162863256
[2.0000e+00 2.0000e+00 2.0000e+00 2.0000e+00 1.9568e+00 1.9416e+00
 1.7710e+00 1.5542e+00 1.1311e+00 8.6697e-01 3.9605e-01 2.4268e-01
 1.1035e-01 1.6913e-02 1.1679e-02 6.4360e-04]
entropy correction =  -0.036596120598630426
cycle= 6 E= -12.557918160068  delta_E= 0.206  |g|= 0.53  |ddm|= 1.39
HOMO:  -0.21771688491572128 LUMO:  -0.2133589835481572
Fermi energy:      -0.2151620398
[2.0000e+00 2.0000e+00 2.0000e+00 2.0000e+00 1.9293e+00 1.7908e+00
 1.7459e+00 1.2637e+00 1.2501e+00 8.2162e-01 7.1835e-01 3.5073e-01
 9.4621e-02 1.8869e-02 1.5111e-02 9.0706e-04]
entropy correction =  -0.04274885497828648
cycle= 7 E= -12.7747979573312  delta_E= -0.217  |g|= 0.0539  |ddm|= 1.12
HOMO:  -0.2180592546815276 LUMO:  -0.21411389552234714
Fermi energy:      -0.2157457794
[2.0000e+00 2.0000e+00 2.0000e+00 2.0000e+00 1.9364e+00 1.8721e+00
 1.7064e+00 1.2359e+00 1.2273e+00 8.3824e-01 6.8540e-01 3.7622e-01
 8.9381e-02 1.6340e-02 1.5461e-02 7.7968e-04]
entropy correction =  -0.042129031961114005
cycle= 8 E= -12.7710470693282  delta_E= 0.00375  |g|= 0.0919  |ddm|= 0.325
HOMO:  -0.2182884675204605 LUMO:  -0.213260087336984
Fermi energy:      -0.2158721242
[2.0000e+00 2.0000e+00 2.0000e+00 2.0000e+00 1.9331e+00 1.8196e+00
 1.7867e+00 1.2485e+00 1.2370e+00 7.4458e-01 7.3349e-01 3.7527e-01
 8.9663e-02 1.6190e-02 1.5143e-02 7.9840e-04]
entropy correction =  -0.04194100529430851
cycle= 9 E= -12.7757111347143  delta_E= -0.00466  |g|= 0.0535  |ddm|= 0.27
HOMO:  -0.21774829884755784 LUMO:  -0.21292031036298384
Fermi energy:      -0.2154040538
[2.0000e+00 2.0000e+00 2.0000e+00 2.0000e+00 1.9313e+00 1.8152e+00
 1.8010e+00 1.2352e+00 1.2302e+00 7.5661e-01 7.3214e-01 3.7622e-01
 9.0103e-02 1.5942e-02 1.5305e-02 8.1289e-04]
entropy correction =  -0.04195461729721311
cycle= 10 E= -12.7774095317029  delta_E= -0.0017  |g|= 0.0246  |ddm|= 0.121
HOMO:  -0.21802179057067175 LUMO:  -0.21311276670260687
Fermi energy:      -0.2156618125
[2.0000e+00 2.0000e+00 2.0000e+00 2.0000e+00 1.9311e+00 1.8076e+00
 1.8033e+00 1.2358e+00 1.2317e+00 7.5048e-01 7.4405e-01 3.7389e-01
 8.9970e-02 1.6017e-02 1.5305e-02 8.0863e-04]
entropy correction =  -0.04201210177667128
cycle= 11 E= -12.777627342306  delta_E= -0.000218  |g|= 0.0187  |ddm|= 0.0587
HOMO:  -0.2183363056520609 LUMO:  -0.21345066112920058
Fermi energy:      -0.2159787337
[2.0000e+00 2.0000e+00 2.0000e+00 2.0000e+00 1.9311e+00 1.8042e+00
 1.8013e+00 1.2361e+00 1.2315e+00 7.5244e-01 7.4937e-01 3.7214e-01
 8.9577e-02 1.5720e-02 1.5666e-02 8.0207e-04]
entropy correction =  -0.042072114229412254
cycle= 12 E= -12.7778770318132  delta_E= -0.00025  |g|= 0.00468  |ddm|= 0.037
HOMO:  -0.2183962053055822 LUMO:  -0.213510657390228
Fermi energy:      -0.2160319313
[2.0000e+00 2.0000e+00 2.0000e+00 2.0000e+00 1.9312e+00 1.8045e+00
 1.8013e+00 1.2347e+00 1.2321e+00 7.5308e-01 7.4905e-01 3.7239e-01
 8.9468e-02 1.5764e-02 1.5585e-02 7.9960e-04]
entropy correction =  -0.042068791385313546
cycle= 13 E= -12.7778831115348  delta_E= -6.08e-06  |g|= 0.004  |ddm|= 0.0136
HOMO:  -0.2184928273144628 LUMO:  -0.21361336905925585
Fermi energy:      -0.2161246434
[...]
HOMO:  -0.36599496762873635 LUMO:  -0.36540910688761413
Fermi energy:      -0.3664448624
[2.0000e+00 1.9993e+00 1.9893e+00 1.9850e+00 1.9702e+00 1.9622e+00
 1.9505e+00 9.9714e-01 9.5504e-01 8.9679e-01 6.1740e-01 5.7469e-01
 1.0225e-01 2.1294e-04]
entropy correction =  -0.038617243777957805
cycle= 6 E= -13.4014676901184  delta_E= -0.0495  |g|= 0.0489  |ddm|= 0.422
HOMO:  -0.3669159671754805 LUMO:  -0.3662548594481505
Fermi energy:      -0.3672163850
[2.0000e+00 1.9992e+00 1.9893e+00 1.9869e+00 1.9717e+00 1.9544e+00
 1.9483e+00 1.0678e+00 9.6997e-01 9.0414e-01 5.7360e-01 5.4005e-01
 9.4524e-02 2.2092e-04]
entropy correction =  -0.03825620921622925
cycle= 7 E= -13.3995043945305  delta_E= 0.00196  |g|= 0.0628  |ddm|= 0.267
HOMO:  -0.36852762051127835 LUMO:  -0.36619903882174526
Fermi energy:      -0.3679657598
[2.0000e+00 1.9990e+00 1.9896e+00 1.9883e+00 1.9606e+00 1.9604e+00
 1.9434e+00 1.0631e+00 1.0561e+00 8.2514e-01 5.6283e-01 5.5946e-01
 9.1742e-02 2.3365e-04]
entropy correction =  -0.03830445325427227
cycle= 8 E= -13.4032469715191  delta_E= -0.00374  |g|= 0.0214  |ddm|= 0.175
HOMO:  -0.36765341748979874 LUMO:  -0.36576628186679777
Fermi energy:      -0.3673038406
[2.0000e+00 1.9989e+00 1.9888e+00 1.9869e+00 1.9614e+00 1.9609e+00
 1.9415e+00 1.0363e+00 1.0349e+00 8.4744e-01 5.7505e-01 5.7379e-01
 9.3841e-02 2.3317e-04]
entropy correction =  -0.038587662941936565
cycle= 9 E= -13.4029882040711  delta_E= 0.000259  |g|= 0.0305  |ddm|= 0.0609
HOMO:  -0.36661605591315466 LUMO:  -0.36528105021079443
Fermi energy:      -0.3665629672
[2.0000e+00 1.9988e+00 1.9876e+00 1.9853e+00 1.9619e+00 1.9616e+00
 1.9395e+00 1.0134e+00 1.0053e+00 8.7251e-01 5.8961e-01 5.8836e-01
 9.6027e-02 2.3307e-04]
entropy correction =  -0.038885081046352854
cycle= 10 E= -13.4036562664074  delta_E= -0.000668  |g|= 0.00306  |ddm|= 0.0557
HOMO:  -0.3663106543645839 LUMO:  -0.3651308730443375
Fermi energy:      -0.3663537481
[2.0000e+00 1.9988e+00 1.9870e+00 1.9856e+00 1.9622e+00 1.9621e+00
 1.9395e+00 1.0079e+00 9.9569e-01 8.7832e-01 5.9451e-01 5.9114e-01
 9.7170e-02 2.3265e-04]
entropy correction =  -0.038935694947476375
cycle= 11 E= -13.403647188945  delta_E= 9.08e-06  |g|= 0.00405  |ddm|= 0.0217
HOMO:  -0.36646742209026356 LUMO:  -0.36514422215113357
Fermi energy:      -0.3664173563
[2.0000e+00 1.9988e+00 1.9874e+00 1.9856e+00 1.9624e+00 1.9617e+00
 1.9400e+00 1.0073e+00 1.0050e+00 8.7337e-01 5.9178e-01 5.8980e-01
 9.6763e-02 2.3334e-04]
entropy correction =  -0.03889083486214351
cycle= 12 E= -13.4036583772672  delta_E= -1.12e-05  |g|= 0.00361  |ddm|= 0.0155
HOMO:  -0.3664916887818529 LUMO:  -0.36515087933081913
Fermi energy:      -0.3664285808
[2.0000e+00 1.9988e+00 1.9874e+00 1.9856e+00 1.9622e+00 1.9618e+00
 1.9400e+00 1.0067e+00 1.0063e+00 8.7292e-01 5.9121e-01 5.9008e-01
 9.6719e-02 2.3333e-04]
entropy correction =  -0.0388868581269288
cycle= 13 E= -13.4036674779551  delta_E= -9.1e-06  |g|= 0.000569  |ddm|= 0.00692
HOMO:  -0.3664683986891741 LUMO:  -0.3651449450291413
Fermi energy:      -0.3664193015
[2.0000e+00 1.9988e+00 1.9874e+00 1.9855e+00 1.9621e+00 1.9620e+00
 1.9401e+00 1.0071e+00 1.0049e+00 8.7325e-01 5.9141e-01 5.9045e-01
 9.6749e-02 2.3326e-04]
entropy correction =  -0.03888961470831581
cycle= 14 E= -13.4036656263829  delta_E= 1.85e-06  |g|= 0.00162  |ddm|= 0.00425
HOMO:  -0.36646661314914286 LUMO:  -0.36514765850705017
Fermi energy:      -0.3664209693
[2.0000e+00 1.9988e+00 1.9874e+00 1.9855e+00 1.9621e+00 1.9620e+00
 1.9400e+00 1.0073e+00 1.0046e+00 8.7335e-01 5.9143e-01 5.9049e-01
 9.6758e-02 2.3328e-04]
entropy correction =  -0.03889051915460189
cycle= 15 E= -13.4036607333306  delta_E= 4.89e-06  |g|= 0.00304  |ddm|= 0.00585
HOMO:  -0.36649534884722806 LUMO:  -0.3651614903564369
Fermi energy:      -0.3664361825
[2.0000e+00 1.9988e+00 1.9874e+00 1.9856e+00 1.9622e+00 1.9619e+00
 1.9400e+00 1.0067e+00 1.0059e+00 8.7322e-01 5.9091e-01 5.9046e-01
 9.6751e-02 2.3343e-04]
entropy correction =  -0.038889687152220694
cycle= 16 E= -13.4036676237555  delta_E= -6.89e-06  |g|= 0.000373  |ddm|= 0.00526
HOMO:  -0.36650525398700046 LUMO:  -0.36516779068685445
Fermi energy:      -0.3664441255
[2.0000e+00 1.9988e+00 1.9874e+00 1.9856e+00 1.9622e+00 1.9619e+00
 1.9400e+00 1.0070e+00 1.0061e+00 8.7306e-01 5.9094e-01 5.9013e-01
 9.6738e-02 2.3345e-04]
entropy correction =  -0.03888778360870616
cycle= 17 E= -13.403667755707  delta_E= -1.32e-07  |g|= 0.000148  |ddm|= 0.00115
HOMO:  -0.366503445904703 LUMO:  -0.36516646021269766
Fermi energy:      -0.3664423195
[2.0000e+00 1.9988e+00 1.9874e+00 1.9855e+00 1.9622e+00 1.9619e+00
 1.9399e+00 1.0069e+00 1.0061e+00 8.7310e-01 5.9100e-01 5.9016e-01
 9.6739e-02 2.3349e-04]
entropy correction =  -0.03888906494608133
cycle= 18 E= -13.4036674950702  delta_E= 2.61e-07  |g|= 0.00062  |ddm|= 0.0011
HOMO:  -0.36649807174132487 LUMO:  -0.3651622916580051
Fermi energy:      -0.3664378852
[2.0000e+00 1.9988e+00 1.9874e+00 1.9855e+00 1.9622e+00 1.9619e+00
 1.9400e+00 1.0068e+00 1.0060e+00 8.7313e-01 5.9106e-01 5.9028e-01
 9.6739e-02 2.3346e-04]
entropy correction =  -0.03888939801567802
cycle= 19 E= -13.4036677701886  delta_E= -2.75e-07  |g|= 6.23e-05  |ddm|= 0.000969
HOMO:  -0.3664987789973481 LUMO:  -0.3651625677987961
Fermi energy:      -0.3664385917
[2.0000e+00 1.9988e+00 1.9874e+00 1.9856e+00 1.9622e+00 1.9619e+00
 1.9400e+00 1.0068e+00 1.0060e+00 8.7309e-01 5.9105e-01 5.9025e-01
 9.6735e-02 2.3344e-04]
entropy correction =  -0.038888692642141814
cycle= 20 E= -13.4036677736728  delta_E= -3.48e-09  |g|= 1.96e-05  |ddm|= 0.000206
HOMO:  -0.3664998819172779 LUMO:  -0.3651627724301155
Fermi energy:      -0.3664390379
[2.0000e+00 1.9988e+00 1.9874e+00 1.9856e+00 1.9622e+00 1.9619e+00
 1.9400e+00 1.0068e+00 1.0061e+00 8.7306e-01 5.9103e-01 5.9024e-01
 9.6734e-02 2.3343e-04]
entropy correction =  -0.038888322134066226
cycle= 21 E= -13.4036677684634  delta_E= 5.21e-09  |g|= 8.9e-05  |ddm|= 0.000209
HOMO:  -0.36649966491167624 LUMO:  -0.36516273984385306
Fermi energy:      -0.3664390289
[2.0000e+00 1.9988e+00 1.9874e+00 1.9856e+00 1.9622e+00 1.9619e+00
 1.9400e+00 1.0068e+00 1.0061e+00 8.7306e-01 5.9102e-01 5.9025e-01
 9.6734e-02 2.3343e-04]
entropy correction =  -0.038888290029640386
cycle= 22 E= -13.4036677721806  delta_E= -3.72e-09  |g|= 4.9e-05  |ddm|= 0.000232
HOMO:  -0.36649865023088846 LUMO:  -0.36516232424568
Fermi energy:      -0.3664383789
[2.0000e+00 1.9988e+00 1.9874e+00 1.9856e+00 1.9622e+00 1.9619e+00
 1.9400e+00 1.0068e+00 1.0060e+00 8.7308e-01 5.9104e-01 5.9026e-01
 9.6736e-02 2.3344e-04]
entropy correction =  -0.03888866040781382
cycle= 23 E= -13.4036677740355  delta_E= -1.85e-09  |g|= 1.29e-05  |ddm|= 0.000116
HOMO:  -0.36649872797813526 LUMO:  -0.3651623473490226
Fermi energy:      -0.3664384003
[2.0000e+00 1.9988e+00 1.9874e+00 1.9856e+00 1.9622e+00 1.9619e+00
 1.9400e+00 1.0068e+00 1.0060e+00 8.7308e-01 5.9104e-01 5.9026e-01
 9.6736e-02 2.3344e-04]
entropy correction =  -0.038888663593105756
cycle= 24 E= -13.4036677741335  delta_E= -9.8e-11  |g|= 8.08e-06  |ddm|= 2.98e-05
HOMO:  -0.36649930130339775 LUMO:  -0.365162646441272
Fermi energy:      -0.3664387557
[2.0000e+00 1.9988e+00 1.9874e+00 1.9856e+00 1.9622e+00 1.9619e+00
 1.9400e+00 1.0068e+00 1.0061e+00 8.7308e-01 5.9103e-01 5.9025e-01
 9.6736e-02 2.3344e-04]
entropy correction =  -0.03888858098054684
Extra cycle  E= -13.4036677670256  delta_E= 7.11e-09  |g|= 0.000101  |ddm|= 0.000158
entropy correction =  -0.03888858098054684
rks_ao.ne_frozen =  0
Set gradient conv threshold to 3.16228e-05
tot grids = 190200
init E= -9.12169490073838
HOMO:  -0.18203744429665153 LUMO:  -0.17115755672022986
Fermi energy:      -0.1750221866
[2.0000e+00 2.0000e+00 2.0000e+00 2.0000e+00 1.9147e+00 1.8508e+00
 1.8499e+00 1.6062e+00 1.6053e+00 6.3169e-01 4.0259e-01 5.8215e-02
 5.6845e-02 1.1582e-02 1.1391e-02 8.3125e-04]
entropy correction =  -0.03162199836985709
cycle= 1 E= -12.4375882371628  delta_E= -3.32  |g|= 0.773  |ddm|= 5.23
HOMO:  -0.13313258573984862 LUMO:  -0.1299786623923579
Fermi energy:      -0.1291121718
[2.0000e+00 2.0000e+00 2.0000e+00 2.0000e+00 2.0000e+00 2.0000e+00
 1.9817e+00 1.3941e+00 1.3817e+00 1.0864e+00 4.8318e-02 4.5808e-02
 3.6260e-02 1.2500e-02 1.0788e-02 1.0415e-03 5.7741e-04 5.0884e-04
 2.9286e-04]
entropy correction =  -0.023693035677846766
cycle= 2 E= -12.3597151232816  delta_E= 0.0779  |g|= 0.987  |ddm|=  2.9
HOMO:  -0.217945789592288 LUMO:  -0.20957779073245839
Fermi energy:      -0.2147406499
[2.0000e+00 2.0000e+00 2.0000e+00 2.0000e+00 1.9883e+00 1.9880e+00
 1.9670e+00 1.3120e+00 1.3100e+00 5.2517e-01 3.8959e-01 3.8648e-01
 1.0127e-01 1.5695e-02 1.5519e-02 1.0494e-03]
entropy correction =  -0.03300585184998357
cycle= 3 E= -12.748477149557  delta_E= -0.389  |g|= 0.228  |ddm|= 1.38
HOMO:  -0.21849409998652444 LUMO:  -0.21368715123864407
Fermi energy:      -0.2162397939
[2.0000e+00 2.0000e+00 2.0000e+00 2.0000e+00 1.9290e+00 1.8248e+00
 1.8165e+00 1.2244e+00 1.2217e+00 7.5014e-01 7.4792e-01 3.5677e-01
 9.7019e-02 1.5664e-02 1.5277e-02 8.2894e-04]
entropy correction =  -0.04172959267742792
cycle= 4 E= -12.7743319910403  delta_E= -0.0259  |g|= 0.0634  |ddm|= 0.534
HOMO:  -0.21874214322323993 LUMO:  -0.21397047848909284
Fermi energy:      -0.2163325598
[2.0000e+00 2.0000e+00 2.0000e+00 2.0000e+00 1.9364e+00 1.8043e+00
 1.7953e+00 1.2427e+00 1.2364e+00 7.6809e-01 7.1207e-01 3.8353e-01
 9.2799e-02 1.4268e-02 1.3272e-02 7.8151e-04]
entropy correction =  -0.04199160951305766
cycle= 5 E= -12.7554665027035  delta_E= 0.0189  |g|= 0.171  |ddm|= 0.344
HOMO:  -0.21836652029983972 LUMO:  -0.21358238179336125
Fermi energy:      -0.2160998347
[2.0000e+00 2.0000e+00 2.0000e+00 2.0000e+00 1.9333e+00 1.8097e+00
 1.8065e+00 1.2254e+00 1.2229e+00 7.5344e-01 7.4459e-01 3.8258e-01
 9.0147e-02 1.5651e-02 1.5097e-02 7.6550e-04]
entropy correction =  -0.042020124003577505
cycle= 6 E= -12.7776519297478  delta_E= -0.0222  |g|= 0.0118  |ddm|= 0.266
HOMO:  -0.21815951599194963 LUMO:  -0.2132158182590129
Fermi energy:      -0.2157920655
[2.0000e+00 2.0000e+00 2.0000e+00 2.0000e+00 1.9310e+00 1.8056e+00
 1.8052e+00 1.2373e+00 1.2324e+00 7.4793e-01 7.4305e-01 3.7532e-01
 8.9871e-02 1.5912e-02 1.5629e-02 8.1053e-04]
entropy correction =  -0.042015029923773824
cycle= 7 E= -12.7778575669118  delta_E= -0.000206  |g|= 0.00623  |ddm|= 0.0497
HOMO:  -0.2182921606056191 LUMO:  -0.2133366524143126
Fermi energy:      -0.2159049377
[2.0000e+00 2.0000e+00 2.0000e+00 2.0000e+00 1.9310e+00 1.8064e+00
 1.8028e+00 1.2348e+00 1.2343e+00 7.4867e-01 7.4604e-01 3.7400e-01
 8.9693e-02 1.5879e-02 1.5594e-02 8.0654e-04]
entropy correction =  -0.04202940089478896
cycle= 8 E= -12.7778463304108  delta_E= 1.12e-05  |g|= 0.00777  |ddm|= 0.0269
HOMO:  -0.21840663155507167 LUMO:  -0.2135087212817181
Fermi energy:      -0.2160317522
[2.0000e+00 2.0000e+00 2.0000e+00 2.0000e+00 1.9311e+00 1.8051e+00
 1.8023e+00 1.2341e+00 1.2331e+00 7.5292e-01 7.4694e-01 3.7273e-01
 8.9489e-02 1.5882e-02 1.5494e-02 8.0086e-04]
entropy correction =  -0.042049620399626224
cycle= 9 E= -12.7778806011716  delta_E= -3.43e-05  |g|= 0.00336  |ddm|= 0.0191
HOMO:  -0.21843885258030127 LUMO:  -0.21353497891330783
Fermi energy:      -0.2160651649
[2.0000e+00 2.0000e+00 2.0000e+00 2.0000e+00 1.9312e+00 1.8040e+00
 1.8020e+00 1.2339e+00 1.2330e+00 7.5225e-01 7.4971e-01 3.7239e-01
 8.9405e-02 1.5817e-02 1.5534e-02 7.9894e-04]
entropy correction =  -0.0420665870479972
cycle= 10 E= -12.7778839317041  delta_E= -3.33e-06  |g|= 0.00296  |ddm|= 0.00851
HOMO:  -0.21843081629731564 LUMO:  -0.2135224360181886
Fermi energy:      -0.2160629283
[2.0000e+00 2.0000e+00 2.0000e+00 2.0000e+00 1.9312e+00 1.8038e+00
 1.8022e+00 1.2342e+00 1.2325e+00 7.5128e-01 7.5110e-01 3.7230e-01
 8.9395e-02 1.5784e-02 1.5554e-02 7.9855e-04]
entropy correction =  -0.04206717022501261
cycle= 11 E= -12.7778903367761  delta_E= -6.41e-06  |g|= 0.000625  |ddm|= 0.00556
HOMO:  -0.21840171934385114 LUMO:  -0.21348638370551898
Fermi energy:      -0.2160302878
[2.0000e+00 2.0000e+00 2.0000e+00 2.0000e+00 1.9312e+00 1.8046e+00
 1.8022e+00 1.2340e+00 1.2328e+00 7.5096e-01 7.5015e-01 3.7248e-01
 8.9373e-02 1.5790e-02 1.5554e-02 7.9929e-04]
entropy correction =  -0.04205450887408332
cycle= 12 E= -12.7778904314828  delta_E= -9.47e-08  |g|= 0.000535  |ddm|= 0.0022
HOMO:  -0.21839908697381374 LUMO:  -0.21348391315880771
Fermi energy:      -0.2160280498
[2.0000e+00 2.0000e+00 2.0000e+00 2.0000e+00 1.9312e+00 1.8043e+00
 1.8026e+00 1.2341e+00 1.2328e+00 7.5094e-01 7.5013e-01 3.7250e-01
 8.9374e-02 1.5797e-02 1.5549e-02 7.9937e-04]
entropy correction =  -0.042054644878125005
cycle= 13 E= -12.7778906510646  delta_E= -2.2e-07  |g|= 0.000123  |ddm|= 0.00145
HOMO:  -0.21839984159012088 LUMO:  -0.21348410311625535
Fermi energy:      -0.2160284672
[2.0000e+00 2.0000e+00 2.0000e+00 2.0000e+00 1.9312e+00 1.8043e+00
 1.8025e+00 1.2341e+00 1.2328e+00 7.5092e-01 7.5022e-01 3.7248e-01
 8.9362e-02 1.5796e-02 1.5550e-02 7.9927e-04]
entropy correction =  -0.042055403147662526
cycle= 14 E= -12.777890662907  delta_E= -1.18e-08  |g|= 2.83e-05  |ddm|= 0.00033
HOMO:  -0.21840060978456735 LUMO:  -0.21348514650679387
Fermi energy:      -0.2160291851
[2.0000e+00 2.0000e+00 2.0000e+00 2.0000e+00 1.9312e+00 1.8043e+00
 1.8025e+00 1.2341e+00 1.2328e+00 7.5095e-01 7.5022e-01 3.7248e-01
 8.9361e-02 1.5796e-02 1.5550e-02 7.9924e-04]
entropy correction =  -0.04205565056769453
cycle= 15 E= -12.7778906641229  delta_E= -1.22e-09  |g|= 7.49e-06  |ddm|= 0.000125
HOMO:  -0.21840136820267736 LUMO:  -0.21348584192252923
Fermi energy:      -0.2160300010
[2.0000e+00 2.0000e+00 2.0000e+00 2.0000e+00 1.9312e+00 1.8043e+00
 1.8025e+00 1.2341e+00 1.2328e+00 7.5093e-01 7.5025e-01 3.7247e-01
 8.9361e-02 1.5797e-02 1.5549e-02 7.9921e-04]
entropy correction =  -0.04205567522942134
cycle= 16 E= -12.7778906627375  delta_E= 1.39e-09  |g|= 4.21e-05  |ddm|= 0.000103
HOMO:  -0.21840114860491155 LUMO:  -0.2134857737149472
Fermi energy:      -0.2160298095
[2.0000e+00 2.0000e+00 2.0000e+00 2.0000e+00 1.9312e+00 1.8043e+00
 1.8025e+00 1.2341e+00 1.2328e+00 7.5095e-01 7.5023e-01 3.7247e-01
 8.9361e-02 1.5796e-02 1.5550e-02 7.9922e-04]
entropy correction =  -0.04205559432363791
cycle= 17 E= -12.7778906641482  delta_E= -1.41e-09  |g|= 5.65e-06  |ddm|= 8.45e-05
HOMO:  -0.21840107169713405 LUMO:  -0.2134857039617747
Fermi energy:      -0.2160297303
[2.0000e+00 2.0000e+00 2.0000e+00 2.0000e+00 1.9312e+00 1.8043e+00
 1.8025e+00 1.2341e+00 1.2328e+00 7.5095e-01 7.5023e-01 3.7247e-01
 8.9361e-02 1.5796e-02 1.5550e-02 7.9923e-04]
entropy correction =  -0.04205558546866752
cycle= 18 E= -12.7778906641634  delta_E= -1.52e-11  |g|= 3.7e-06  |ddm|= 1.68e-05
HOMO:  -0.21840103342611408 LUMO:  -0.21348553413841334
Fermi energy:      -0.2160296357
[2.0000e+00 2.0000e+00 2.0000e+00 2.0000e+00 1.9312e+00 1.8043e+00
 1.8025e+00 1.2341e+00 1.2328e+00 7.5094e-01 7.5024e-01 3.7247e-01
 8.9361e-02 1.5796e-02 1.5550e-02 7.9923e-04]
entropy correction =  -0.04205563889487381
Extra cycle  E= -12.7778906636237  delta_E= 5.4e-10  |g|= 2.65e-05  |ddm|= 5.62e-05
entropy correction =  -0.04205563889487381
scf energies:
EA (no vemb contrib.) =  -34.789246256139535
EB (no vemb contrib.) =  -24.95013126129148
W =  -59.6362101861324
P_imp change (scf - non-scf):  2.9825700672336238e-12
P_bath change (scf - non-scf):  7.177570088126677e-12
|P_frag + P_env - P_ref| =  0.06800330715035685
max element of (P_frag + P_env - P_ref) =  0.0033736432416401965
mo orthogonality:
[[-4.4775e-06  3.2820e-06 -1.4540e-05  1.5234e-02 -1.2448e-06 -4.7970e-05
  -3.0644e-05 -4.6256e-06  1.0856e-05  7.5864e-05 -4.2384e-07 -4.5500e-05
   3.2496e-01  1.3544e-04 -1.2915e-04  4.5588e-01 -8.6372e-05  8.7179e-04
   1.6353e-04]
 [ 1.6643e-05 -1.7428e-05  8.2775e-03  9.7509e-06  3.3156e-06 -4.2687e-06
  -1.2497e-06  2.5872e-04 -2.2506e-04 -7.2548e-06  6.4789e-06 -2.4821e-01
   1.1751e-04  1.0048e-04  1.9378e-05 -1.2995e-04 -1.2243e-03 -8.7739e-03
  -9.7678e-03]
 [ 3.1971e-04  1.0403e-03  6.7581e-05  4.1011e-05  2.4022e-05  1.6601e-05
   1.6444e-05  6.5620e-03  1.9653e-02 -6.7536e-05 -3.4423e-06 -2.2752e-03
   7.3162e-05 -1.7767e-04  3.3067e-05 -6.1010e-04  1.6040e-02  6.8598e-01
  -1.1456e-01]
 [ 6.2121e-04 -2.6325e-04 -4.2846e-05 -4.8072e-06  7.9447e-06 -3.9655e-06
  -2.3824e-05  2.0225e-02 -6.1679e-03  4.6469e-05 -1.2812e-06  1.9469e-03
  -1.6607e-05 -2.9221e-04 -1.1818e-04  3.8773e-04 -1.4699e-02 -9.6532e-02
  -7.9580e-01]
 [-5.8327e-06 -6.3847e-07  7.6512e-06 -4.0529e-05 -7.4678e-06  2.0751e-02
  -6.7587e-03  2.2378e-05  1.2417e-05  5.7965e-02 -4.2823e-02 -1.6627e-04
  -2.3779e-04 -3.4055e-01  8.6500e-01  3.1223e-04 -3.5072e-04 -5.5598e-04
  -1.0553e-03]
 [-4.7120e-06 -4.6967e-06  8.3073e-06 -2.3588e-05  1.4096e-05  6.8530e-03
   2.0764e-02 -1.0709e-05 -7.8406e-05  4.2973e-02  5.7755e-02  1.0194e-04
   1.8726e-04  8.6522e-01  3.3989e-01 -5.1466e-04 -1.5826e-03 -3.4193e-04
  -2.0225e-04]
 [-5.4332e-06 -2.5850e-06 -1.0908e-05 -6.2525e-03  2.5309e-06  4.1788e-05
   1.1504e-04  1.8008e-05 -1.9404e-05 -3.2647e-05  4.9107e-05 -1.4521e-05
  -7.6054e-01  5.3770e-04 -1.2821e-04  5.3211e-01 -3.1342e-04  4.5697e-04
   2.0091e-04]
 [-1.8562e-05  3.2672e-07 -2.8203e-06  1.5569e-04 -6.4271e-05 -1.9698e-01
   2.2017e-02 -8.4052e-06  7.5932e-05  8.7634e-01 -4.0496e-01 -1.5639e-04
  -8.0033e-05  1.1928e-02 -7.1428e-02  2.1593e-05 -4.2407e-04  1.5584e-04
   5.7080e-05]
 [-2.0407e-05  2.6692e-06 -3.5604e-05 -1.0519e-05  8.0961e-05  2.2095e-02
   1.9621e-01 -5.3372e-05 -1.1500e-05 -4.0496e-01 -8.7655e-01 -3.2540e-04
  -1.7087e-05  7.1154e-02  1.2457e-02 -1.1255e-04  3.4985e-05 -2.2771e-04
   8.6033e-05]
 [-5.4507e-05  1.0371e-04  5.7842e-02 -6.6381e-05  1.4866e-06 -3.1093e-05
   8.4837e-05  3.1782e-05  3.5030e-04  9.0747e-06 -3.9113e-04  9.3725e-01
  -2.5236e-05 -1.0260e-04  1.2770e-04 -7.2278e-05 -2.1531e-04 -3.6068e-04
  -1.1474e-03]
 [-2.0029e-03 -3.1851e-02  4.6712e-05  3.0277e-05 -3.9676e-05  1.0592e-04
  -3.0700e-06  3.5383e-02  9.7261e-01 -5.1132e-05  2.0976e-05 -3.1585e-04
  -2.4791e-05  9.3634e-05  4.0516e-05  3.9264e-05 -4.4311e-04 -1.6945e-03
  -1.5207e-03]
 [-3.0589e-02  2.1975e-03 -4.5289e-05  5.4706e-05  8.2674e-05  1.0563e-05
   3.0643e-06  9.7223e-01 -3.5511e-02 -1.6077e-05 -5.1119e-05  3.2227e-05
   3.7209e-05  3.7787e-05 -9.4275e-05 -1.3926e-05  9.5202e-04 -2.5132e-04
   1.5188e-02]
 [ 1.1250e-04 -2.8172e-04  6.4835e-04 -7.7244e-01 -1.3468e-04 -1.6843e-04
   1.5540e-04  6.8160e-05 -1.4284e-05  9.6174e-05  6.6419e-05 -1.7103e-04
  -2.8253e-01 -2.2841e-04 -2.0136e-04 -3.2219e-01  2.1262e-04 -1.0949e-04
  -1.2358e-05]
 [ 2.2979e-03 -4.1881e-04  1.6026e-05  1.7746e-04 -9.5822e-01  1.3186e-04
   3.8277e-04  3.4930e-04 -1.1463e-04 -4.4231e-05  1.2729e-05 -8.4609e-07
  -2.1801e-05 -5.5831e-05 -1.4881e-04 -1.7676e-05 -1.6725e-04 -2.7792e-04
   5.8421e-05]]
|P_imp-P_imp_0| =  2.9825700672336238e-12
max(P_imp-P_imp_0) =  3.734235143326714e-13
|P_bath-P_bath_0| =  7.177570088126677e-12
max(P_bath-P_bath_0) =  6.198236368604171e-13
RUNNING THE L-BFGS-B CODE

           * * *

Machine precision = 2.220D-16
 N =         4656     M =           10

At X0         0 variables are exactly at the bounds

At iterate    0    f=   1.175133370321E-03    |proj g|=  6.346368507E-04

At iterate    1    f=   1.175133370321E-03    |proj g|=  6.346368491E-04

           * * *

Tit   = total number of iterations
Tnf   = total number of function evaluations
Tnint = total number of segments explored during Cauchy searches
Skip  = number of BFGS updates skipped
Nact  = number of active bounds at final generalized Cauchy point
Projg = norm of the final projected gradient
F     = final function value

           * * *

   N    Tit     Tnf  Tnint  Skip  Nact     Projg        F
 4656      1     16      1     0     0   6.346D-04   1.175D-03
  F =   1.1751333703210127E-003

CONVERGENCE: REL_REDUCTION_OF_F_<=_FACTR*EPSMCH             

 Cauchy                time 0.000E+00 seconds.
 Subspace minimization time 0.000E+00 seconds.
 Line search           time 0.000E+00 seconds.

 Total User time 0.000E+00 seconds.

