#INFO: **** input file is /tigress/xingz/pydmfet/examples/research/Al12/dmfet/least/Al12.py ****
from pydmfet import locints, sdmfet, oep, tools, dfet_ao, proj_ao
from pydmfet.dfet_ao import dfet
from pydmfet.qcwrap.pyscf_rks_ao import rks_ao
from pyscf import gto, scf,dft, ao2mo,cc
import numpy as np
from pyscf.tools import molden, cubegen
import copy,time
from pydmfet.tools.sym import h_lattice_sym_tab

bas = 'stuttgartdz'
ecp = 'stuttgartdz'
temp = 0.005


mol = gto.Mole()
mol.atom = open('Al12.xyz').read()
mol.basis = bas
mol.ecp = ecp
mol.build(max_memory = 4000, verbose=4)

mf = rks_ao(mol,smear_sigma = temp)
mf.xc = 'pbe,pbe'
mf.max_cycle = 50
mf.scf(dm0=None)

natoms = mol.natm
impAtom = np.zeros([natoms], dtype=int)
for i in range(6):
    impAtom[i] = 1

ghost_frag = 1-impAtom
ghost_env = 1-ghost_frag

mol_frag = gto.Mole()
mol_frag.atom = tools.add_ghost(mol.atom, ghost_frag)
mol_frag.basis = bas
mol_frag.ecp = ecp
mol_frag.build(max_memory = 4000,verbose = 4)

mol_env = gto.Mole()
mol_env.atom = tools.add_ghost(mol.atom, ghost_env)
mol_env.basis =  bas
mol_env.ecp = ecp
mol_env.build(max_memory = 4000,verbose = 4)

Ne_frag = 18
Ne_env = 18

boundary_atoms = None
boundary_atoms2 =None

umat = None
umat = np.load("umat.npy")

params = oep.OEPparams(algorithm = 'leastsq', opt_method = 'L-BFGS-B', diffP_tol=1e-3, outer_maxit = 10)
params.options['ftol'] = 1e-10
params.options['gtol'] = 1e-4
params.options['maxiter'] = 100
params.options['svd_thresh'] = 1e-5

theDMFET = dfet.DFET(mf, mol_frag, mol_env,Ne_frag,Ne_env,\
                     boundary_atoms=boundary_atoms, boundary_atoms2=boundary_atoms2,umat = umat,\
                     oep_params=params, smear_sigma=temp, ecw_method = 'hf',mf_method = mf.xc, plot_dens=True)

umat = theDMFET.embedding_potential()
#INFO: ******************** input file end ********************


System: uname_result(system='Linux', node='tiger-h21c2n6', release='3.10.0-957.27.2.el7.x86_64', version='#1 SMP Tue Jul 30 11:12:20 EDT 2019', machine='x86_64', processor='x86_64')  Threads 40
Python 3.7.0 (default, Jun 28 2018, 13:15:42) 
[GCC 7.2.0]
numpy 1.16.4  scipy 1.4.0.dev0+0f78e0f
Date: Thu Aug 22 17:12:10 2019
PySCF version 1.5
PySCF path  /home/xingz/.local/lib/python3.7/site-packages/pyscf

[CONFIG] conf_file None
[INPUT] verbose = 4
[INPUT] num. atoms = 12
[INPUT] num. electrons = 36
[INPUT] charge = 0
[INPUT] spin (= nelec alpha-beta = 2S) = 0
[INPUT] symmetry False subgroup None
[INPUT] Mole.unit = angstrom
[INPUT]  1 Al     8.092960000000   4.046480000000  -0.000000000000 AA   15.293477937060   7.646738968530  -0.000000000000 Bohr
[INPUT]  2 Al     8.092960000000   6.069720000000  -2.023240000000 AA   15.293477937060  11.470108452795  -3.823369484265 Bohr
[INPUT]  3 Al    10.116200000000   4.046480000000  -2.023240000000 AA   19.116847421325   7.646738968530  -3.823369484265 Bohr
[INPUT]  4 Al     6.069720000000   4.046480000000  -2.023240000000 AA   11.470108452795   7.646738968530  -3.823369484265 Bohr
[INPUT]  5 Al     8.092960000000   2.023240000000  -2.023240000000 AA   15.293477937060   3.823369484265  -3.823369484265 Bohr
[INPUT]  6 Al     8.092960000000   4.046480000000  -4.046480000000 AA   15.293477937060   7.646738968530  -7.646738968530 Bohr
[INPUT]  7 Al     6.069720000000   6.069720000000  -0.000000000000 AA   11.470108452795  11.470108452795  -0.000000000000 Bohr
[INPUT]  8 Al    10.116200000000   2.023240000000  -0.000000000000 AA   19.116847421325   3.823369484265  -0.000000000000 Bohr
[INPUT]  9 Al    10.116200000000   6.069720000000  -4.046480000000 AA   19.116847421325  11.470108452795  -7.646738968530 Bohr
[INPUT] 10 Al     6.069720000000   2.023240000000  -0.000000000000 AA   11.470108452795   3.823369484265  -0.000000000000 Bohr
[INPUT] 11 Al     6.069720000000   6.069720000000  -4.046480000000 AA   11.470108452795  11.470108452795  -7.646738968530 Bohr
[INPUT] 12 Al    10.116200000000   2.023240000000  -4.046480000000 AA   19.116847421325   3.823369484265  -7.646738968530 Bohr

nuclear repulsion = 84.8573926838199
number of shells = 48
number of NR pGTOs = 192
number of NR cGTOs = 96
basis = stuttgartdz
ecp = stuttgartdz
CPU time:         2.92
rks_ao.ne_frozen =  0


******** <class 'pydmfet.qcwrap.pyscf_rks_ao.rks_ao'> flags ********
method = rks_ao-RKS-RHF
initial guess = minao
damping factor = 0
level shift factor = 0
DIIS = <class 'pyscf.scf.diis.CDIIS'>
DIIS start cycle = 1
DIIS space = 8
SCF tol = 1e-09
SCF gradient tol = None
max. SCF cycles = 50
direct_scf = False
chkfile to save SCF result = /tmp/tmp6tu04tvl
max_memory 4000 MB (current use 69 MB)
XC functionals = pbe,pbe
small_rho_cutoff = 1e-07
radial grids: 
    Treutler-Ahlrichs (JCP 102, 346 (M4)) radial grids
    
becke partition: Becke, JCP, 88, 2547 (1988)
pruning grids: <function nwchem_prune at 0x2adc87887400>
grids dens level: 3
symmetrized grids: False
atomic radii adjust function: <function treutler_atomic_radii_adjust at 0x2adc87887378>
Set gradient conv threshold to 3.16228e-05
tot grids = 220800
init E= -21.344783658299
HOMO:  -0.0964087524766542 LUMO:  -0.08910626015727986
Fermi energy:      -0.0887572500
[2.     2.     2.     2.     2.     2.     2.     2.     2.     2.
 2.     2.     1.9995 1.9096 1.7557 1.7557 1.6441 1.6441 1.0349 0.2163
 0.02   0.02  ]
entropy correction =  -0.03012640112055572
cycle= 1 E= -24.0317931623433  delta_E= -2.69  |g|= 0.653  |ddm|= 6.67
HOMO:  -0.23116268121406736 LUMO:  -0.23116268121406622
Fermi energy:      -0.2358858179
[2.     2.     2.     2.     2.     2.     2.     2.     2.     2.
 2.     2.     2.     1.9989 1.9981 1.9981 1.9963 0.5599 0.5599 0.4393
 0.4393 0.0101]
entropy correction =  -0.023039333382987946
cycle= 2 E= -22.7589412389303  delta_E= 1.27  |g|= 1.61  |ddm|= 4.31
HOMO:  -0.18647942894363317 LUMO:  -0.17551521715008936
Fermi energy:      -0.1766937420
[2.     2.     2.     2.     2.     2.     2.     2.     2.     2.
 2.     2.     1.9995 1.9702 1.7766 1.7766 1.7524 1.7524 0.8827 0.0807
 0.0044 0.0044]
entropy correction =  -0.024152976140203633
cycle= 3 E= -24.1577819139596  delta_E= -1.4  |g|= 0.177  |ddm|= 3.48
HOMO:  -0.16723309364643216 LUMO:  -0.16668219584287108
Fermi energy:      -0.1626445453
[2.     2.     2.     2.     2.     2.     2.     2.     2.     2.
 2.     2.     1.9999 1.922  1.8341 1.8341 1.4292 1.4292 1.3832 0.1196
 0.0244 0.0244]
entropy correction =  -0.029092388982086905
cycle= 4 E= -24.1758252803638  delta_E= -0.018  |g|= 0.0887  |ddm|= 0.83
HOMO:  -0.16913270192186064 LUMO:  -0.1647659994642604
Fermi energy:      -0.1627185946
[2.     2.     2.     2.     2.     2.     2.     2.     2.     2.
 2.     2.     1.9998 1.9364 1.7964 1.7964 1.5659 1.5659 1.2019 0.1144
 0.0115 0.0115]
entropy correction =  -0.028086976616488887
cycle= 5 E= -24.183154801888  delta_E= -0.00733  |g|= 0.00917  |ddm|= 0.293
HOMO:  -0.17049749264548758 LUMO:  -0.1661181449768914
Fermi energy:      -0.1641279001
[2.     2.     2.     2.     2.     2.     2.     2.     2.     2.
 2.     2.     1.9999 1.9389 1.802  1.802  1.5628 1.5628 1.1964 0.1103
 0.0124 0.0124]
entropy correction =  -0.02795963123735501
cycle= 6 E= -24.1832343076198  delta_E= -7.95e-05  |g|= 0.00113  |ddm|= 0.0422
HOMO:  -0.17058528293726255 LUMO:  -0.16630331880958193
Fermi energy:      -0.1642599608
[2.     2.     2.     2.     2.     2.     2.     2.     2.     2.
 2.     2.     1.9999 1.9387 1.8025 1.8025 1.5598 1.5598 1.2015 0.1105
 0.0124 0.0124]
entropy correction =  -0.027983238069822457
cycle= 7 E= -24.1832355424434  delta_E= -1.23e-06  |g|= 0.000895  |ddm|= 0.00747
HOMO:  -0.17054731833012973 LUMO:  -0.166216908154915
Fermi energy:      -0.1641961314
[2.     2.     2.     2.     2.     2.     2.     2.     2.     2.
 2.     2.     1.9999 1.9385 1.8018 1.8018 1.5616 1.5616 1.1994 0.1109
 0.0124 0.0124]
entropy correction =  -0.027989016591825795
cycle= 8 E= -24.1832361917859  delta_E= -6.49e-07  |g|= 7.71e-05  |ddm|= 0.00356
HOMO:  -0.17053508515499402 LUMO:  -0.16621147282032211
Fermi energy:      -0.1641878969
[2.     2.     2.     2.     2.     2.     2.     2.     2.     2.
 2.     2.     1.9999 1.9385 1.8019 1.8019 1.5613 1.5613 1.1996 0.1108
 0.0124 0.0124]
entropy correction =  -0.027988384491849205
cycle= 9 E= -24.1832362012565  delta_E= -9.47e-09  |g|= 2.11e-05  |ddm|= 0.000544
HOMO:  -0.1705320370117772 LUMO:  -0.16620777273045248
Fermi energy:      -0.1641845192
[2.     2.     2.     2.     2.     2.     2.     2.     2.     2.
 2.     2.     1.9999 1.9385 1.8019 1.8019 1.5613 1.5613 1.1996 0.1108
 0.0124 0.0124]
entropy correction =  -0.02798810871278127
cycle= 10 E= -24.1832362015521  delta_E= -2.96e-10  |g|= 3.03e-06  |ddm|= 6.6e-05
HOMO:  -0.17053311709025967 LUMO:  -0.16620885001249727
Fermi energy:      -0.1641855888
[2.     2.     2.     2.     2.     2.     2.     2.     2.     2.
 2.     2.     1.9999 1.9385 1.8019 1.8019 1.5613 1.5613 1.1996 0.1108
 0.0124 0.0124]
entropy correction =  -0.027988118840463455
Extra cycle  E= -24.1832362015505  delta_E= 1.63e-12  |g|= 3.71e-06  |ddm|= 1.75e-05
converged SCF energy = -24.1832362015505
#INFO: **** input file is /tigress/xingz/pydmfet/examples/research/Al12/dmfet/least/Al12.py ****
from pydmfet import locints, sdmfet, oep, tools, dfet_ao, proj_ao
from pydmfet.dfet_ao import dfet
from pydmfet.qcwrap.pyscf_rks_ao import rks_ao
from pyscf import gto, scf,dft, ao2mo,cc
import numpy as np
from pyscf.tools import molden, cubegen
import copy,time
from pydmfet.tools.sym import h_lattice_sym_tab

bas = 'stuttgartdz'
ecp = 'stuttgartdz'
temp = 0.005


mol = gto.Mole()
mol.atom = open('Al12.xyz').read()
mol.basis = bas
mol.ecp = ecp
mol.build(max_memory = 4000, verbose=4)

mf = rks_ao(mol,smear_sigma = temp)
mf.xc = 'pbe,pbe'
mf.max_cycle = 50
mf.scf(dm0=None)

natoms = mol.natm
impAtom = np.zeros([natoms], dtype=int)
for i in range(6):
    impAtom[i] = 1

ghost_frag = 1-impAtom
ghost_env = 1-ghost_frag

mol_frag = gto.Mole()
mol_frag.atom = tools.add_ghost(mol.atom, ghost_frag)
mol_frag.basis = bas
mol_frag.ecp = ecp
mol_frag.build(max_memory = 4000,verbose = 4)

mol_env = gto.Mole()
mol_env.atom = tools.add_ghost(mol.atom, ghost_env)
mol_env.basis =  bas
mol_env.ecp = ecp
mol_env.build(max_memory = 4000,verbose = 4)

Ne_frag = 18
Ne_env = 18

boundary_atoms = None
boundary_atoms2 =None

umat = None
umat = np.load("umat.npy")

params = oep.OEPparams(algorithm = 'leastsq', opt_method = 'L-BFGS-B', diffP_tol=1e-3, outer_maxit = 10)
params.options['ftol'] = 1e-10
params.options['gtol'] = 1e-4
params.options['maxiter'] = 100
params.options['svd_thresh'] = 1e-5

theDMFET = dfet.DFET(mf, mol_frag, mol_env,Ne_frag,Ne_env,\
                     boundary_atoms=boundary_atoms, boundary_atoms2=boundary_atoms2,umat = umat,\
                     oep_params=params, smear_sigma=temp, ecw_method = 'hf',mf_method = mf.xc, plot_dens=True)

umat = theDMFET.embedding_potential()
#INFO: ******************** input file end ********************


System: uname_result(system='Linux', node='tiger-h21c2n6', release='3.10.0-957.27.2.el7.x86_64', version='#1 SMP Tue Jul 30 11:12:20 EDT 2019', machine='x86_64', processor='x86_64')  Threads 40
Python 3.7.0 (default, Jun 28 2018, 13:15:42) 
[GCC 7.2.0]
numpy 1.16.4  scipy 1.4.0.dev0+0f78e0f
Date: Thu Aug 22 17:12:23 2019
PySCF version 1.5
PySCF path  /home/xingz/.local/lib/python3.7/site-packages/pyscf

[CONFIG] conf_file None
[INPUT] verbose = 4
[INPUT] num. atoms = 12
[INPUT] num. electrons = 18
[INPUT] charge = 0
[INPUT] spin (= nelec alpha-beta = 2S) = 0
[INPUT] symmetry False subgroup None
[INPUT] Mole.unit = angstrom
[INPUT]  1 Al     8.092960000000   4.046480000000  -0.000000000000 AA   15.293477937060   7.646738968530  -0.000000000000 Bohr
[INPUT]  2 Al     8.092960000000   6.069720000000  -2.023240000000 AA   15.293477937060  11.470108452795  -3.823369484265 Bohr
[INPUT]  3 Al    10.116200000000   4.046480000000  -2.023240000000 AA   19.116847421325   7.646738968530  -3.823369484265 Bohr
[INPUT]  4 Al     6.069720000000   4.046480000000  -2.023240000000 AA   11.470108452795   7.646738968530  -3.823369484265 Bohr
[INPUT]  5 Al     8.092960000000   2.023240000000  -2.023240000000 AA   15.293477937060   3.823369484265  -3.823369484265 Bohr
[INPUT]  6 Al     8.092960000000   4.046480000000  -4.046480000000 AA   15.293477937060   7.646738968530  -7.646738968530 Bohr
[INPUT]  7 GHOST-Al   6.069720000000   6.069720000000  -0.000000000000 AA   11.470108452795  11.470108452795  -0.000000000000 Bohr
[INPUT]  8 GHOST-Al  10.116200000000   2.023240000000  -0.000000000000 AA   19.116847421325   3.823369484265  -0.000000000000 Bohr
[INPUT]  9 GHOST-Al  10.116200000000   6.069720000000  -4.046480000000 AA   19.116847421325  11.470108452795  -7.646738968530 Bohr
[INPUT] 10 GHOST-Al   6.069720000000   2.023240000000  -0.000000000000 AA   11.470108452795   3.823369484265  -0.000000000000 Bohr
[INPUT] 11 GHOST-Al   6.069720000000   6.069720000000  -4.046480000000 AA   11.470108452795  11.470108452795  -7.646738968530 Bohr
[INPUT] 12 GHOST-Al  10.116200000000   2.023240000000  -4.046480000000 AA   19.116847421325   3.823369484265  -7.646738968530 Bohr

nuclear repulsion = 23.5047992975816
number of shells = 48
number of NR pGTOs = 192
number of NR cGTOs = 96
basis = stuttgartdz
ecp = stuttgartdz
CPU time:       335.55
#INFO: **** input file is /tigress/xingz/pydmfet/examples/research/Al12/dmfet/least/Al12.py ****
from pydmfet import locints, sdmfet, oep, tools, dfet_ao, proj_ao
from pydmfet.dfet_ao import dfet
from pydmfet.qcwrap.pyscf_rks_ao import rks_ao
from pyscf import gto, scf,dft, ao2mo,cc
import numpy as np
from pyscf.tools import molden, cubegen
import copy,time
from pydmfet.tools.sym import h_lattice_sym_tab

bas = 'stuttgartdz'
ecp = 'stuttgartdz'
temp = 0.005


mol = gto.Mole()
mol.atom = open('Al12.xyz').read()
mol.basis = bas
mol.ecp = ecp
mol.build(max_memory = 4000, verbose=4)

mf = rks_ao(mol,smear_sigma = temp)
mf.xc = 'pbe,pbe'
mf.max_cycle = 50
mf.scf(dm0=None)

natoms = mol.natm
impAtom = np.zeros([natoms], dtype=int)
for i in range(6):
    impAtom[i] = 1

ghost_frag = 1-impAtom
ghost_env = 1-ghost_frag

mol_frag = gto.Mole()
mol_frag.atom = tools.add_ghost(mol.atom, ghost_frag)
mol_frag.basis = bas
mol_frag.ecp = ecp
mol_frag.build(max_memory = 4000,verbose = 4)

mol_env = gto.Mole()
mol_env.atom = tools.add_ghost(mol.atom, ghost_env)
mol_env.basis =  bas
mol_env.ecp = ecp
mol_env.build(max_memory = 4000,verbose = 4)

Ne_frag = 18
Ne_env = 18

boundary_atoms = None
boundary_atoms2 =None

umat = None
umat = np.load("umat.npy")

params = oep.OEPparams(algorithm = 'leastsq', opt_method = 'L-BFGS-B', diffP_tol=1e-3, outer_maxit = 10)
params.options['ftol'] = 1e-10
params.options['gtol'] = 1e-4
params.options['maxiter'] = 100
params.options['svd_thresh'] = 1e-5

theDMFET = dfet.DFET(mf, mol_frag, mol_env,Ne_frag,Ne_env,\
                     boundary_atoms=boundary_atoms, boundary_atoms2=boundary_atoms2,umat = umat,\
                     oep_params=params, smear_sigma=temp, ecw_method = 'hf',mf_method = mf.xc, plot_dens=True)

umat = theDMFET.embedding_potential()
#INFO: ******************** input file end ********************


System: uname_result(system='Linux', node='tiger-h21c2n6', release='3.10.0-957.27.2.el7.x86_64', version='#1 SMP Tue Jul 30 11:12:20 EDT 2019', machine='x86_64', processor='x86_64')  Threads 40
Python 3.7.0 (default, Jun 28 2018, 13:15:42) 
[GCC 7.2.0]
numpy 1.16.4  scipy 1.4.0.dev0+0f78e0f
Date: Thu Aug 22 17:12:23 2019
PySCF version 1.5
PySCF path  /home/xingz/.local/lib/python3.7/site-packages/pyscf

[CONFIG] conf_file None
[INPUT] verbose = 4
[INPUT] num. atoms = 12
[INPUT] num. electrons = 18
[INPUT] charge = 0
[INPUT] spin (= nelec alpha-beta = 2S) = 0
[INPUT] symmetry False subgroup None
[INPUT] Mole.unit = angstrom
[INPUT]  1 GHOST-Al   8.092960000000   4.046480000000  -0.000000000000 AA   15.293477937060   7.646738968530  -0.000000000000 Bohr
[INPUT]  2 GHOST-Al   8.092960000000   6.069720000000  -2.023240000000 AA   15.293477937060  11.470108452795  -3.823369484265 Bohr
[INPUT]  3 GHOST-Al  10.116200000000   4.046480000000  -2.023240000000 AA   19.116847421325   7.646738968530  -3.823369484265 Bohr
[INPUT]  4 GHOST-Al   6.069720000000   4.046480000000  -2.023240000000 AA   11.470108452795   7.646738968530  -3.823369484265 Bohr
[INPUT]  5 GHOST-Al   8.092960000000   2.023240000000  -2.023240000000 AA   15.293477937060   3.823369484265  -3.823369484265 Bohr
[INPUT]  6 GHOST-Al   8.092960000000   4.046480000000  -4.046480000000 AA   15.293477937060   7.646738968530  -7.646738968530 Bohr
[INPUT]  7 Al     6.069720000000   6.069720000000  -0.000000000000 AA   11.470108452795  11.470108452795  -0.000000000000 Bohr
[INPUT]  8 Al    10.116200000000   2.023240000000  -0.000000000000 AA   19.116847421325   3.823369484265  -0.000000000000 Bohr
[INPUT]  9 Al    10.116200000000   6.069720000000  -4.046480000000 AA   19.116847421325  11.470108452795  -7.646738968530 Bohr
[INPUT] 10 Al     6.069720000000   2.023240000000  -0.000000000000 AA   11.470108452795   3.823369484265  -0.000000000000 Bohr
[INPUT] 11 Al     6.069720000000   6.069720000000  -4.046480000000 AA   11.470108452795  11.470108452795  -7.646738968530 Bohr
[INPUT] 12 Al    10.116200000000   2.023240000000  -4.046480000000 AA   19.116847421325   3.823369484265  -7.646738968530 Bohr

nuclear repulsion = 14.0938802665721
number of shells = 48
number of NR pGTOs = 192
number of NR cGTOs = 96
basis = stuttgartdz
ecp = stuttgartdz
CPU time:       335.93


******** <class 'pydmfet.dfet_ao.scf.EmbedSCF'> flags ********
method = EmbedSCF-RKS-RHF
initial guess = minao
damping factor = 0
level shift factor = 0
DIIS = <class 'pyscf.scf.diis.CDIIS'>
DIIS start cycle = 1
DIIS space = 8
SCF tol = 1e-09
SCF gradient tol = None
max. SCF cycles = 50
direct_scf = False
chkfile to save SCF result = /tmp/tmpvuzltmbn
max_memory 4000 MB (current use 539 MB)
XC functionals = pbe,pbe
small_rho_cutoff = 1e-07
radial grids: 
    Treutler-Ahlrichs (JCP 102, 346 (M4)) radial grids
    
becke partition: Becke, JCP, 88, 2547 (1988)
pruning grids: <function nwchem_prune at 0x2adc87887400>
grids dens level: 3
symmetrized grids: False
atomic radii adjust function: <function treutler_atomic_radii_adjust at 0x2adc87887378>
Set gradient conv threshold to 3.16228e-05
tot grids = 190200
init E= -9.26968297721888
HOMO: -0.24217868270554316 LUMO: -0.238673927302397
mo_energy:
[-0.3681 -0.2682 -0.2663 -0.2662 -0.2598 -0.2596 -0.2589 -0.2422 -0.2422
 -0.2387 -0.2381 -0.2311 -0.2305 -0.2171]
e_fermi =  -0.24104586765288338
[2.    1.991 1.987 1.987 1.954 1.953 1.945 1.115 1.113 0.767 0.714 0.24
 0.217 0.017]
entropy correction =  -0.03901442028405246
cycle= 1 E= -12.9125838817783  delta_E= -3.64  |g|= 0.865  |ddm|= 4.92
HOMO: -0.49797709433334864 LUMO: -0.44852645974085964
mo_energy:
[-0.872 -0.676 -0.62  -0.619 -0.54  -0.53  -0.529 -0.498 -0.498 -0.449
 -0.444 -0.443 -0.431 -0.426]
e_fermi =  -0.47301938294608775
[2.    2.    2.    2.    2.    2.    2.    1.987 1.987 0.015 0.006 0.005]
entropy correction =  -0.0016448966515667848
cycle= 2 E= -12.8240166104194  delta_E= 0.0886  |g|= 1.09  |ddm|= 3.43
HOMO: -0.3840275647345051 LUMO: -0.3722162176147587
mo_energy:
[-0.59  -0.445 -0.418 -0.417 -0.409 -0.404 -0.403 -0.384 -0.384 -0.372
 -0.372 -0.372 -0.363 -0.335]
e_fermi =  -0.37947364029482256
[2.    2.    1.999 1.999 1.995 1.984 1.983 1.431 1.426 0.38  0.375 0.355
 0.073]
entropy correction =  -0.029117000554014238
cycle= 3 E= -13.3595824922281  delta_E= -0.536  |g|= 0.234  |ddm|=  1.8
HOMO: -0.3707444404050306 LUMO: -0.3707201665672803
mo_energy:
[-0.556 -0.405 -0.4   -0.399 -0.391 -0.39  -0.386 -0.371 -0.371 -0.371
 -0.366 -0.366 -0.358 -0.326]
e_fermi =  -0.37090310091280126
[2.    1.998 1.994 1.993 1.965 1.958 1.904 1.033 0.984 0.982 0.535 0.525
 0.129]
entropy correction =  -0.039098805182335626
cycle= 4 E= -13.3955900654438  delta_E= -0.036  |g|= 0.087  |ddm|= 0.829
HOMO: -0.36701198050632483 LUMO: -0.3649295388979492
mo_energy:
[-0.55  -0.406 -0.395 -0.392 -0.388 -0.386 -0.384 -0.367 -0.367 -0.365
 -0.363 -0.362 -0.352 -0.321]
e_fermi =  -0.36677155545844303
[2.    1.999 1.993 1.988 1.971 1.961 1.943 1.039 1.024 0.818 0.625 0.536
 0.102]
entropy correction =  -0.038322091074341424
cycle= 5 E= -13.3514580650086  delta_E= 0.0441  |g|= 0.272  |ddm|= 0.552
HOMO: -0.365997476620993 LUMO: -0.36541468868661686
mo_energy:
[-0.55  -0.406 -0.393 -0.391 -0.387 -0.386 -0.385 -0.366 -0.366 -0.365
 -0.362 -0.362 -0.352 -0.321]
e_fermi =  -0.36644795077572206
[2.    1.999 1.989 1.985 1.97  1.962 1.951 0.997 0.955 0.897 0.617 0.574
 0.102]
entropy correction =  -0.03861570770887993
cycle= 6 E= -13.4014686306128  delta_E= -0.05  |g|= 0.0488  |ddm|= 0.423
HOMO: -0.36691380949352026 LUMO: -0.3662528968533499
mo_energy:
[-0.551 -0.406 -0.393 -0.392 -0.388 -0.386 -0.385 -0.368 -0.367 -0.366
 -0.363 -0.362 -0.352 -0.322]
e_fermi =  -0.3672148328107275
[2.    1.999 1.989 1.987 1.972 1.954 1.948 1.068 0.97  0.904 0.574 0.54
 0.095]
entropy correction =  -0.038256436710742706
cycle= 7 E= -13.3994991303127  delta_E= 0.00197  |g|= 0.0628  |ddm|= 0.267
HOMO: -0.3685279450007498 LUMO: -0.36619852136538356
mo_energy:
[-0.551 -0.406 -0.394 -0.394 -0.388 -0.387 -0.386 -0.369 -0.369 -0.366
 -0.363 -0.363 -0.353 -0.323]
e_fermi =  -0.3679656844204042
[2.    1.999 1.99  1.988 1.961 1.96  1.943 1.063 1.056 0.825 0.563 0.56
 0.092]
entropy correction =  -0.03830397151212348
cycle= 8 E= -13.4032159448893  delta_E= -0.00372  |g|= 0.0224  |ddm|= 0.175
HOMO: -0.36788127083794864 LUMO: -0.36587631886936384
mo_energy:
[-0.55  -0.405 -0.393 -0.393 -0.387 -0.387 -0.385 -0.368 -0.368 -0.366
 -0.363 -0.363 -0.352 -0.322]
e_fermi =  -0.3674734265884927
[2.    1.999 1.989 1.987 1.961 1.961 1.942 1.043 1.041 0.842 0.572 0.57
 0.093]
entropy correction =  -0.03851664733741562
cycle= 9 E= -13.4029859159931  delta_E= 0.00023  |g|= 0.0302  |ddm|= 0.0583
HOMO: -0.3666191384944387 LUMO: -0.3652825802680407
mo_energy:
[-0.548 -0.404 -0.392 -0.391 -0.386 -0.386 -0.384 -0.367 -0.367 -0.365
 -0.362 -0.362 -0.352 -0.321]
e_fermi =  -0.36656551799718834
[2.    1.999 1.988 1.985 1.962 1.962 1.939 1.014 1.005 0.872 0.59  0.588
 0.096]
entropy correction =  -0.038883929321172926
cycle= 10 E= -13.4036550214431  delta_E= -0.000669  |g|= 0.0033  |ddm|= 0.06
HOMO: -0.36631919558010506 LUMO: -0.36513497655944227
mo_energy:
[-0.547 -0.403 -0.391 -0.391 -0.386 -0.386 -0.384 -0.366 -0.366 -0.365
 -0.362 -0.362 -0.351 -0.321]
e_fermi =  -0.36635364281216565
[2.    1.999 1.987 1.986 1.962 1.962 1.939 1.007 0.997 0.879 0.594 0.591
 0.097]
entropy correction =  -0.03893812179891383
cycle= 11 E= -13.4036202600946  delta_E= 3.48e-05  |g|= 0.00782  |ddm|= 0.0248
HOMO: -0.3663698164702449 LUMO: -0.3651157018999461
mo_energy:
[-0.547 -0.403 -0.392 -0.391 -0.386 -0.386 -0.384 -0.366 -0.366 -0.365
 -0.362 -0.362 -0.351 -0.321]
e_fermi =  -0.3663782205765797
[2.    1.999 1.987 1.986 1.962 1.962 1.94  1.011 0.999 0.874 0.593 0.59
 0.097]
entropy correction =  -0.038901064480210995
cycle= 12 E= -13.4036185488943  delta_E= 1.71e-06  |g|= 0.00793  |ddm|= 0.0249
HOMO: -0.3664889752936372 LUMO: -0.36514943480783707
mo_energy:
[-0.548 -0.404 -0.392 -0.391 -0.386 -0.386 -0.384 -0.366 -0.366 -0.365
 -0.362 -0.362 -0.352 -0.321]
e_fermi =  -0.3664263540137168
[2.    1.999 1.987 1.986 1.962 1.962 1.94  1.007 1.006 0.873 0.591 0.59
 0.097]
entropy correction =  -0.03888742948925211
cycle= 13 E= -13.4036673544485  delta_E= -4.88e-05  |g|= 0.000494  |ddm|= 0.0167
HOMO: -0.3664678876077858 LUMO: -0.3651452237273574
mo_energy:
[-0.548 -0.404 -0.392 -0.391 -0.386 -0.386 -0.384 -0.366 -0.366 -0.365
 -0.362 -0.362 -0.352 -0.321]
e_fermi =  -0.36641918438613263
[2.    1.999 1.987 1.986 1.962 1.962 1.94  1.007 1.005 0.873 0.591 0.59
 0.097]
entropy correction =  -0.03888987234239908
cycle= 14 E= -13.40366566301  delta_E= 1.69e-06  |g|= 0.00152  |ddm|= 0.00419
HOMO: -0.3664673092686665 LUMO: -0.36514847736936124
mo_energy:
[-0.548 -0.404 -0.392 -0.391 -0.386 -0.386 -0.384 -0.366 -0.366 -0.365
 -0.362 -0.362 -0.352 -0.321]
e_fermi =  -0.3664217040096301
[2.    1.999 1.987 1.986 1.962 1.962 1.94  1.007 1.005 0.873 0.591 0.59
 0.097]
entropy correction =  -0.0388904784430963
cycle= 15 E= -13.4036602987108  delta_E= 5.36e-06  |g|= 0.0031  |ddm|= 0.00586
HOMO: -0.36649552656189566 LUMO: -0.3651614600364747
mo_energy:
[-0.548 -0.404 -0.392 -0.391 -0.386 -0.386 -0.384 -0.367 -0.366 -0.365
 -0.362 -0.362 -0.352 -0.321]
e_fermi =  -0.36643614180348494
[2.    1.999 1.987 1.986 1.962 1.962 1.94  1.007 1.006 0.873 0.591 0.59
 0.097]
entropy correction =  -0.03888961216197555
cycle= 16 E= -13.4036674940304  delta_E= -7.2e-06  |g|= 0.000337  |ddm|= 0.00533
HOMO: -0.3665060511224028 LUMO: -0.3651681688273013
mo_energy:
[-0.548 -0.404 -0.392 -0.391 -0.386 -0.386 -0.384 -0.367 -0.367 -0.365
 -0.362 -0.362 -0.352 -0.321]
e_fermi =  -0.3664446387594288
[2.    1.999 1.987 1.986 1.962 1.962 1.94  1.007 1.006 0.873 0.591 0.59
 0.097]
entropy correction =  -0.0388875073341674
cycle= 17 E= -13.4036675878001  delta_E= -9.38e-08  |g|= 0.000193  |ddm|= 0.00109
HOMO: -0.36650676804774934 LUMO: -0.36516871795218475
mo_energy:
[-0.548 -0.404 -0.392 -0.391 -0.386 -0.386 -0.384 -0.367 -0.367 -0.365
 -0.362 -0.362 -0.352 -0.321]
e_fermi =  -0.36644509490693433
[2.    1.999 1.987 1.986 1.962 1.962 1.94  1.007 1.006 0.873 0.591 0.59
 0.097]
entropy correction =  -0.038888106036617374
cycle= 18 E= -13.403667432809  delta_E= 1.55e-07  |g|= 0.000503  |ddm|= 0.000965
HOMO: -0.36649817675003094 LUMO: -0.36516235253980667
mo_energy:
[-0.548 -0.404 -0.392 -0.391 -0.386 -0.386 -0.384 -0.367 -0.366 -0.365
 -0.362 -0.362 -0.352 -0.321]
e_fermi =  -0.3664378973752982
[2.    1.999 1.987 1.986 1.962 1.962 1.94  1.007 1.006 0.873 0.591 0.59
 0.097]
entropy correction =  -0.0388893830693568
cycle= 19 E= -13.4036676131763  delta_E= -1.8e-07  |g|= 6.22e-05  |ddm|= 0.00082
HOMO: -0.36649977266413664 LUMO: -0.36516304112328685
mo_energy:
[-0.548 -0.404 -0.392 -0.391 -0.386 -0.386 -0.384 -0.367 -0.366 -0.365
 -0.362 -0.362 -0.352 -0.321]
e_fermi =  -0.36643917369448525
[2.    1.999 1.987 1.986 1.962 1.962 1.94  1.007 1.006 0.873 0.591 0.59
 0.097]
entropy correction =  -0.03888843764378023
cycle= 20 E= -13.4036676170806  delta_E= -3.9e-09  |g|= 8.33e-06  |ddm|= 0.000186
HOMO: -0.3664986649855868 LUMO: -0.3651622021870285
mo_energy:
[-0.548 -0.404 -0.392 -0.391 -0.386 -0.386 -0.384 -0.367 -0.366 -0.365
 -0.362 -0.362 -0.352 -0.321]
e_fermi =  -0.3664382258828649
[2.    1.999 1.987 1.986 1.962 1.962 1.94  1.007 1.006 0.873 0.591 0.59
 0.097]
entropy correction =  -0.03888857116382038
cycle= 21 E= -13.4036676166195  delta_E= 4.61e-10  |g|= 2.69e-05  |ddm|= 7.35e-05
HOMO: -0.3664991043113316 LUMO: -0.36516262320796905
mo_energy:
[-0.548 -0.404 -0.392 -0.391 -0.386 -0.386 -0.384 -0.367 -0.366 -0.365
 -0.362 -0.362 -0.352 -0.321]
e_fermi =  -0.3664386719676076
[2.    1.999 1.987 1.986 1.962 1.962 1.94  1.007 1.006 0.873 0.591 0.59
 0.097]
entropy correction =  -0.03888857270725022
Extra cycle  E= -13.4036675717851  delta_E= 4.48e-08  |g|= 0.000262  |ddm|= 0.000498
converged SCF energy = -13.4036675717851


******** <class 'pydmfet.dfet_ao.scf.EmbedSCF'> flags ********
method = EmbedSCF-RKS-RHF
initial guess = minao
damping factor = 0
level shift factor = 0
DIIS = <class 'pyscf.scf.diis.CDIIS'>
DIIS start cycle = 1
DIIS space = 8
SCF tol = 1e-09
SCF gradient tol = None
max. SCF cycles = 50
direct_scf = False
chkfile to save SCF result = /tmp/tmpr64y3kpr
max_memory 4000 MB (current use 4612 MB)
XC functionals = pbe,pbe
small_rho_cutoff = 1e-07
radial grids: 
    Treutler-Ahlrichs (JCP 102, 346 (M4)) radial grids
    
becke partition: Becke, JCP, 88, 2547 (1988)
pruning grids: <function nwchem_prune at 0x2adc87887400>
grids dens level: 3
symmetrized grids: False
atomic radii adjust function: <function treutler_atomic_radii_adjust at 0x2adc87887378>
Set gradient conv threshold to 3.16228e-05
tot grids = 190200
init E= -9.12169471456115
HOMO: -0.1820373317301384 LUMO: -0.17115752414041124
mo_energy:
[-0.296 -0.296 -0.264 -0.236 -0.191 -0.188 -0.188 -0.182 -0.182 -0.171
 -0.168 -0.157 -0.157 -0.149]
e_fermi =  -0.17502217342233753
[2.    2.    2.    2.    1.915 1.851 1.85  1.606 1.605 0.632 0.403 0.058
 0.057 0.012 0.011]
entropy correction =  -0.03162204820446938
cycle= 1 E= -12.4375878330449  delta_E= -3.32  |g|= 0.773  |ddm|= 5.23
HOMO: -0.13313221592928418 LUMO: -0.1299786198729073
mo_energy:
[-0.352 -0.352 -0.312 -0.261 -0.239 -0.239 -0.153 -0.133 -0.133 -0.13
 -0.111 -0.11  -0.109 -0.104]
e_fermi =  -0.12911208980517827
[2.000e+00 2.000e+00 2.000e+00 2.000e+00 2.000e+00 2.000e+00 1.982e+00
 1.394e+00 1.382e+00 1.086e+00 4.832e-02 4.581e-02 3.626e-02 1.250e-02
 1.079e-02 1.041e-03]
entropy correction =  -0.023693075503577975
cycle= 2 E= -12.3597138412775  delta_E= 0.0779  |g|= 0.987  |ddm|=  2.9
HOMO: -0.21794570852755982 LUMO: -0.209577858635968
mo_energy:
[-0.375 -0.375 -0.342 -0.294 -0.24  -0.24  -0.235 -0.218 -0.218 -0.21
 -0.208 -0.208 -0.2   -0.191]
e_fermi =  -0.21474060375022874
[2.000e+00 2.000e+00 2.000e+00 2.000e+00 1.988e+00 1.988e+00 1.967e+00
 1.312e+00 1.310e+00 5.252e-01 3.896e-01 3.865e-01 1.013e-01 1.570e-02
 1.552e-02 1.049e-03]
entropy correction =  -0.033005915963048464
cycle= 3 E= -12.748474353634  delta_E= -0.389  |g|= 0.228  |ddm|= 1.38
HOMO: -0.21849584918449635 LUMO: -0.21368296802440392
mo_energy:
[-0.365 -0.365 -0.333 -0.288 -0.233 -0.228 -0.228 -0.219 -0.218 -0.214
 -0.214 -0.209 -0.201 -0.192]
e_fermi =  -0.21624099488696183
[2.    2.    2.    2.    1.929 1.825 1.817 1.225 1.222 0.75  0.748 0.357
 0.097 0.016 0.015]
entropy correction =  -0.04172825435003769
cycle= 4 E= -12.7741435640973  delta_E= -0.0257  |g|= 0.0653  |ddm|= 0.534
HOMO: -0.21873923180686106 LUMO: -0.2139637233699091
mo_energy:
[-0.365 -0.364 -0.333 -0.288 -0.233 -0.227 -0.227 -0.219 -0.219 -0.214
 -0.213 -0.209 -0.201 -0.192]
e_fermi =  -0.21633168759189372
[2.    2.    2.    2.    1.936 1.804 1.796 1.242 1.236 0.768 0.713 0.383
 0.093 0.014 0.013]
entropy correction =  -0.04198885839732296
cycle= 5 E= -12.7557388072931  delta_E= 0.0184  |g|= 0.17  |ddm|= 0.344
HOMO: -0.218365205414756 LUMO: -0.2135805673915477
mo_energy:
[-0.364 -0.364 -0.332 -0.288 -0.233 -0.227 -0.227 -0.218 -0.218 -0.214
 -0.213 -0.209 -0.201 -0.192]
e_fermi =  -0.21609966502844027
[2.    2.    2.    2.    1.933 1.81  1.807 1.225 1.223 0.753 0.745 0.383
 0.09  0.016 0.015]
entropy correction =  -0.04201837870615397
cycle= 6 E= -12.7776504877568  delta_E= -0.0219  |g|= 0.0119  |ddm|= 0.265
HOMO: -0.21815659266667897 LUMO: -0.21320875286304777
mo_energy:
[-0.364 -0.364 -0.332 -0.288 -0.232 -0.227 -0.227 -0.218 -0.218 -0.213
 -0.213 -0.208 -0.201 -0.192]
e_fermi =  -0.21579189016175454
[2.    2.    2.    2.    1.931 1.807 1.804 1.238 1.232 0.747 0.744 0.375
 0.09  0.016 0.016]
entropy correction =  -0.042013892082266954
cycle= 7 E= -12.7778460928231  delta_E= -0.000196  |g|= 0.00723  |ddm|= 0.0507
HOMO: -0.2182741145154743 LUMO: -0.21331242208000628
mo_energy:
[-0.364 -0.364 -0.332 -0.288 -0.233 -0.227 -0.227 -0.218 -0.218 -0.213
 -0.213 -0.209 -0.201 -0.192]
e_fermi =  -0.21588784314562298
[2.    2.    2.    2.    1.931 1.807 1.802 1.235 1.234 0.748 0.746 0.374
 0.09  0.016 0.016]
entropy correction =  -0.042027486321785705
cycle= 8 E= -12.7778512257038  delta_E= -5.13e-06  |g|= 0.00721  |ddm|= 0.028
HOMO: -0.21840381272083667 LUMO: -0.21350446176295157
mo_energy:
[-0.364 -0.364 -0.332 -0.288 -0.233 -0.227 -0.227 -0.218 -0.218 -0.214
 -0.213 -0.209 -0.201 -0.192]
e_fermi =  -0.21602856237011958
[2.    2.    2.    2.    1.931 1.805 1.802 1.234 1.233 0.753 0.747 0.373
 0.089 0.016 0.015]
entropy correction =  -0.042049051069594966
cycle= 9 E= -12.7778776189534  delta_E= -2.64e-05  |g|= 0.00379  |ddm|= 0.019
HOMO: -0.21843752405620973 LUMO: -0.21353748147150312
mo_energy:
[-0.364 -0.364 -0.332 -0.288 -0.233 -0.227 -0.227 -0.218 -0.218 -0.214
 -0.214 -0.209 -0.201 -0.192]
e_fermi =  -0.21606364088658073
[2.    2.    2.    2.    1.931 1.804 1.802 1.234 1.233 0.753 0.749 0.372
 0.089 0.016 0.016]
entropy correction =  -0.042066877788205094
cycle= 10 E= -12.7778826558935  delta_E= -5.04e-06  |g|= 0.00309  |ddm|= 0.00911
HOMO: -0.21843028055238395 LUMO: -0.21352268436727287
mo_energy:
[-0.364 -0.364 -0.332 -0.288 -0.233 -0.227 -0.227 -0.218 -0.218 -0.214
 -0.214 -0.209 -0.201 -0.192]
e_fermi =  -0.21606266706878163
[2.    2.    2.    2.    1.931 1.804 1.802 1.234 1.232 0.751 0.751 0.372
 0.089 0.016 0.016]
entropy correction =  -0.0420673404551291
cycle= 11 E= -12.7778896547338  delta_E= -7e-06  |g|= 0.000697  |ddm|= 0.0059
HOMO: -0.2184053570680328 LUMO: -0.21349249389383304
mo_energy:
[-0.364 -0.364 -0.332 -0.288 -0.233 -0.227 -0.227 -0.218 -0.218 -0.213
 -0.213 -0.209 -0.201 -0.192]
e_fermi =  -0.21603385173010883
[2.    2.    2.    2.    1.931 1.805 1.802 1.234 1.233 0.751 0.75  0.372
 0.089 0.016 0.016]
entropy correction =  -0.042056588987450454
cycle= 12 E= -12.7778890324706  delta_E= 6.22e-07  |g|= 0.00113  |ddm|= 0.00357
HOMO: -0.2183989642636667 LUMO: -0.21348376820206622
mo_energy:
[-0.364 -0.364 -0.332 -0.288 -0.233 -0.227 -0.227 -0.218 -0.218 -0.213
 -0.213 -0.209 -0.201 -0.192]
e_fermi =  -0.2160280345217199
[2.    2.    2.    2.    1.931 1.804 1.803 1.234 1.233 0.751 0.75  0.372
 0.089 0.016 0.016]
entropy correction =  -0.04205458377701178
cycle= 13 E= -12.777890052116  delta_E= -1.02e-06  |g|= 6.37e-05  |ddm|= 0.0026
HOMO: -0.21839945964265414 LUMO: -0.21348376642111475
mo_energy:
[-0.364 -0.364 -0.332 -0.288 -0.233 -0.227 -0.227 -0.218 -0.218 -0.213
 -0.213 -0.209 -0.201 -0.192]
e_fermi =  -0.21602821393398997
[2.    2.    2.    2.    1.931 1.804 1.802 1.234 1.233 0.751 0.75  0.372
 0.089 0.016 0.016]
entropy correction =  -0.04205540546994047
cycle= 14 E= -12.777890054869  delta_E= -2.75e-09  |g|= 2.73e-05  |ddm|= 0.000253
HOMO: -0.2184003417819795 LUMO: -0.213485026681729
mo_energy:
[-0.364 -0.364 -0.332 -0.288 -0.233 -0.227 -0.227 -0.218 -0.218 -0.213
 -0.213 -0.209 -0.201 -0.192]
e_fermi =  -0.2160290723681385
[2.    2.    2.    2.    1.931 1.804 1.802 1.234 1.233 0.751 0.75  0.372
 0.089 0.016 0.016]
entropy correction =  -0.04205565839493919
cycle= 15 E= -12.7778900559353  delta_E= -1.07e-09  |g|= 1.91e-05  |ddm|= 0.000139
HOMO: -0.2184013882589729 LUMO: -0.2134862454004038
mo_energy:
[-0.364 -0.364 -0.332 -0.288 -0.233 -0.227 -0.227 -0.218 -0.218 -0.213
 -0.213 -0.209 -0.201 -0.192]
e_fermi =  -0.21603008001170146
[2.    2.    2.    2.    1.931 1.804 1.802 1.234 1.233 0.751 0.75  0.372
 0.089 0.016 0.016]
entropy correction =  -0.042056010805290214
cycle= 16 E= -12.7778900533241  delta_E= 2.61e-09  |g|= 6.08e-05  |ddm|= 0.00013
HOMO: -0.2184007871283398 LUMO: -0.2134853902619263
mo_energy:
[-0.364 -0.364 -0.332 -0.288 -0.233 -0.227 -0.227 -0.218 -0.218 -0.213
 -0.213 -0.209 -0.201 -0.192]
e_fermi =  -0.2160295726426399
[2.    2.    2.    2.    1.931 1.804 1.802 1.234 1.233 0.751 0.75  0.372
 0.089 0.016 0.016]
entropy correction =  -0.04205565079140155
cycle= 17 E= -12.7778900557218  delta_E= -2.4e-09  |g|= 2.51e-05  |ddm|= 0.000109
HOMO: -0.21840075843868761 LUMO: -0.21348548963678807
mo_energy:
[-0.364 -0.364 -0.332 -0.288 -0.233 -0.227 -0.227 -0.218 -0.218 -0.213
 -0.213 -0.209 -0.201 -0.192]
e_fermi =  -0.21602956587271427
[2.    2.    2.    2.    1.931 1.804 1.802 1.234 1.233 0.751 0.75  0.372
 0.089 0.016 0.016]
entropy correction =  -0.04205562312366959
cycle= 18 E= -12.7778900560937  delta_E= -3.72e-10  |g|= 1.37e-05  |ddm|= 6.35e-05
HOMO: -0.21840084860810932 LUMO: -0.21348550527751625
mo_energy:
[-0.364 -0.364 -0.332 -0.288 -0.233 -0.227 -0.227 -0.218 -0.218 -0.213
 -0.213 -0.209 -0.201 -0.192]
e_fermi =  -0.2160295730585138
[2.    2.    2.    2.    1.931 1.804 1.802 1.234 1.233 0.751 0.75  0.372
 0.089 0.016 0.016]
entropy correction =  -0.042055676290568486
Extra cycle  E= -12.7778900497878  delta_E= 6.31e-09  |g|= 9.36e-05  |ddm|= 0.000198
converged SCF energy = -12.7778900497878
|umat| =  2.7562083381928337
rks_ao.ne_frozen =  0
Set gradient conv threshold to 3.16228e-05
Initial guess from hcore.
HOMO:  -3.5059477818541454 LUMO:  -3.31236008379377
Fermi energy:      -3.4073951252
[2. 2. 2. 2. 2. 2. 2. 2. 2.]
tot grids = 190200
init E= -10.1226739269651
HOMO:  -0.06808238039546417 LUMO:  -0.06764662258378218
Fermi energy:      -0.0725537921
[2.     2.     2.     2.     2.     2.     1.9951 1.9522 0.5805 0.5452
 0.4744 0.4526]
entropy correction =  -0.024009746448819733
cycle= 1 E= -10.2329994047022  delta_E= -0.11  |g|= 2.75  |ddm|= 7.87
HOMO:  -0.778226927303134 LUMO:  -0.6487725971009463
Fermi energy:      -0.7121930257
[2. 2. 2. 2. 2. 2. 2. 2. 2.]
entropy correction =  -1.0279820014818618e-06
cycle= 2 E= -11.5448854155359  delta_E= -1.31  |g|= 2.03  |ddm|= 6.47
HOMO:  -0.45049749322900007 LUMO:  -0.41765679162992536
Fermi energy:      -0.4347736687
[2.0000e+00 2.0000e+00 2.0000e+00 2.0000e+00 1.9997e+00 1.9970e+00
 1.9970e+00 1.9186e+00 1.9174e+00 6.3146e-02 6.1934e-02 2.7571e-02
 1.7053e-02 6.5562e-04]
entropy correction =  -0.007695083777464089
cycle= 3 E= -13.2354575978583  delta_E= -1.69  |g|= 0.545  |ddm|= 3.79
HOMO:  -0.3660213070346256 LUMO:  -0.36538248723189426
Fermi energy:      -0.3682233929
[2.0000e+00 1.9985e+00 1.9948e+00 1.9941e+00 1.9768e+00 1.9756e+00
 1.8863e+00 1.2661e+00 7.8328e-01 7.2331e-01 6.0064e-01 5.5716e-01
 2.4320e-01 2.0041e-04]
entropy correction =  -0.039465517208974295
cycle= 4 E= -13.3677828617384  delta_E= -0.132  |g|= 0.207  |ddm|= 1.69
HOMO:  -0.368902097474528 LUMO:  -0.36340026585388463
Fermi energy:      -0.3679572280
[2.0000e+00 1.9998e+00 1.9985e+00 1.9982e+00 1.9831e+00 1.9774e+00
 1.9478e+00 1.4314e+00 1.0942e+00 5.7343e-01 4.6944e-01 4.4754e-01
 7.8885e-02 1.6702e-04]
entropy correction =  -0.03373962085807682
cycle= 5 E= -13.0095962102698  delta_E= 0.358  |g|= 0.751  |ddm|= 1.39
HOMO:  -0.3735671086950308 LUMO:  -0.3693333443096901
Fermi energy:      -0.3720669387
[2.0000e+00 1.9998e+00 1.9964e+00 1.9940e+00 1.9731e+00 1.9674e+00
 1.9615e+00 1.1705e+00 1.1489e+00 7.3325e-01 4.9425e-01 4.6940e-01
 9.1342e-02 2.0461e-04]
entropy correction =  -0.03592761487376615
cycle= 6 E= -13.3894082628002  delta_E= -0.38  |g|= 0.135  |ddm|= 1.05
HOMO:  -0.3722985092754068 LUMO:  -0.3712856145215037
Fermi energy:      -0.3716576162
[2.0000e+00 1.9993e+00 1.9956e+00 1.9853e+00 1.9771e+00 1.9499e+00
 1.9271e+00 1.2306e+00 1.0640e+00 9.6282e-01 5.4756e-01 2.9176e-01
 6.8807e-02 2.2318e-04]
entropy correction =  -0.036016668494521835
cycle= 7 E= -13.3739479366234  delta_E= 0.0155  |g|= 0.167  |ddm|= 0.593
HOMO:  -0.37091890047031484 LUMO:  -0.36809065861859686
Fermi energy:      -0.3702767144
[2.0000e+00 1.9989e+00 1.9908e+00 1.9887e+00 1.9612e+00 1.9553e+00
 1.9386e+00 1.1706e+00 1.0641e+00 7.8481e-01 5.4023e-01 5.2273e-01
 8.3802e-02 2.4025e-04]
entropy correction =  -0.03781256423928158
cycle= 8 E= -13.3989825986989  delta_E= -0.025  |g|= 0.0778  |ddm|= 0.499
HOMO:  -0.36918410295006826 LUMO:  -0.36695268441903955
Fermi energy:      -0.3687233593
[2.0000e+00 1.9988e+00 1.9896e+00 1.9868e+00 1.9640e+00 1.9548e+00
 1.9396e+00 1.1036e+00 1.0460e+00 8.2476e-01 5.5807e-01 5.4658e-01
 8.7134e-02 2.3610e-04]
entropy correction =  -0.03827286272027323
cycle= 9 E= -13.3950283606076  delta_E= 0.00395  |g|= 0.109  |ddm|= 0.267
HOMO:  -0.36524265759856345 LUMO:  -0.36468849641797224
Fermi energy:      -0.3658209372
[2.0000e+00 1.9987e+00 1.9864e+00 1.9818e+00 1.9636e+00 1.9631e+00
 1.9375e+00 1.0383e+00 9.4224e-01 8.8724e-01 6.1675e-01 5.8908e-01
 9.5152e-02 2.2850e-04]
entropy correction =  -0.039071482138703255
cycle= 10 E= -13.4015126874371  delta_E= -0.00648  |g|= 0.0516  |ddm|= 0.241
HOMO:  -0.36495819393742235 LUMO:  -0.3644943742758276
Fermi energy:      -0.3653911193
[2.0000e+00 1.9987e+00 1.9858e+00 1.9839e+00 1.9639e+00 1.9618e+00
 1.9392e+00 9.9631e-01 9.5673e-01 9.1057e-01 6.0790e-01 5.9556e-01
 9.9399e-02 2.2632e-04]
entropy correction =  -0.03911795198879795
cycle= 11 E= -13.4015376964656  delta_E= -2.5e-05  |g|= 0.0566  |ddm|= 0.166
HOMO:  -0.3651428213965272 LUMO:  -0.3643963738091402
Fermi energy:      -0.3654760661
[2.0000e+00 1.9988e+00 1.9863e+00 1.9841e+00 1.9637e+00 1.9629e+00
 1.9409e+00 9.9688e-01 9.6669e-01 8.9245e-01 6.1005e-01 5.9820e-01
 9.8805e-02 2.2852e-04]
entropy correction =  -0.03904786143888745
cycle= 12 E= -13.4035237986293  delta_E= -0.00199  |g|= 0.0161  |ddm|= 0.123
HOMO:  -0.3664532909454511 LUMO:  -0.3651342034871551
Fermi energy:      -0.3663936478
[2.0000e+00 1.9988e+00 1.9876e+00 1.9856e+00 1.9620e+00 1.9616e+00
 1.9393e+00 1.0104e+00 1.0060e+00 8.7472e-01 5.8924e-01 5.8743e-01
 9.7151e-02 2.3308e-04]
entropy correction =  -0.03889239315950829
cycle= 13 E= -13.4037742782065  delta_E= -0.00025  |g|= 0.00257  |ddm|= 0.0494
HOMO:  -0.366544889771305 LUMO:  -0.3652017322299313
Fermi energy:      -0.3664846804
[2.0000e+00 1.9988e+00 1.9873e+00 1.9858e+00 1.9626e+00 1.9611e+00
 1.9398e+00 1.0121e+00 1.0060e+00 8.7240e-01 5.9034e-01 5.8681e-01
 9.6692e-02 2.3251e-04]
entropy correction =  -0.038874965592002035
cycle= 14 E= -13.4037584073829  delta_E= 1.59e-05  |g|= 0.00456  |ddm|= 0.0184
HOMO:  -0.36656499662694214 LUMO:  -0.36519685958266196
Fermi energy:      -0.3664926762
[2.0000e+00 1.9988e+00 1.9874e+00 1.9855e+00 1.9622e+00 1.9618e+00
 1.9403e+00 1.0101e+00 1.0072e+00 8.7114e-01 5.9006e-01 5.8856e-01
 9.6543e-02 2.3174e-04]
entropy correction =  -0.03886493510328326
cycle= 15 E= -13.4037787950564  delta_E= -2.04e-05  |g|= 0.00138  |ddm|= 0.015
HOMO:  -0.36659260645184794 LUMO:  -0.3652223284549841
Fermi energy:      -0.3665102373
[2.0000e+00 1.9988e+00 1.9874e+00 1.9855e+00 1.9620e+00 1.9618e+00
 1.9398e+00 1.0095e+00 1.0082e+00 8.7192e-01 5.8927e-01 5.8885e-01
 9.6636e-02 2.3248e-04]
entropy correction =  -0.0388794703750842
cycle= 16 E= -13.4037798781837  delta_E= -1.08e-06  |g|= 0.00126  |ddm|= 0.00513
HOMO:  -0.3665939554463355 LUMO:  -0.3652308085312463
Fermi energy:      -0.3665159784
[2.0000e+00 1.9988e+00 1.9874e+00 1.9855e+00 1.9622e+00 1.9615e+00
 1.9396e+00 1.0099e+00 1.0078e+00 8.7219e-01 5.9000e-01 5.8811e-01
 9.6650e-02 2.3275e-04]
entropy correction =  -0.03888559307904561
cycle= 17 E= -13.4037778916205  delta_E= 1.99e-06  |g|= 0.00182  |ddm|= 0.00612
HOMO:  -0.36660227264073125 LUMO:  -0.3652267587664736
Fermi energy:      -0.3665153655
[2.0000e+00 1.9988e+00 1.9874e+00 1.9856e+00 1.9620e+00 1.9618e+00
 1.9398e+00 1.0092e+00 1.0087e+00 8.7185e-01 5.8929e-01 5.8877e-01
 9.6625e-02 2.3250e-04]
entropy correction =  -0.03887930226608255
cycle= 18 E= -13.4037792315407  delta_E= -1.34e-06  |g|= 0.00156  |ddm|= 0.00616
HOMO:  -0.3665820766422555 LUMO:  -0.3652172296529601
Fermi energy:      -0.3665026731
[2.0000e+00 1.9988e+00 1.9874e+00 1.9855e+00 1.9621e+00 1.9618e+00
 1.9398e+00 1.0092e+00 1.0079e+00 8.7216e-01 5.8961e-01 5.8894e-01
 9.6653e-02 2.3253e-04]
entropy correction =  -0.03888372523688168
cycle= 19 E= -13.4037810657654  delta_E= -1.83e-06  |g|= 0.000236  |ddm|= 0.00292
HOMO:  -0.3665640589555693 LUMO:  -0.36520478685716223
Fermi energy:      -0.3664848403
[2.0000e+00 1.9988e+00 1.9873e+00 1.9855e+00 1.9621e+00 1.9618e+00
 1.9397e+00 1.0082e+00 1.0079e+00 8.7269e-01 5.8995e-01 5.8910e-01
 9.6718e-02 2.3253e-04]
entropy correction =  -0.038889039886670265
cycle= 20 E= -13.4037791121407  delta_E= 1.95e-06  |g|= 0.0017  |ddm|= 0.00318
HOMO:  -0.3665678122676616 LUMO:  -0.3652070384469946
Fermi energy:      -0.3664881870
[2.0000e+00 1.9988e+00 1.9874e+00 1.9855e+00 1.9621e+00 1.9618e+00
 1.9398e+00 1.0084e+00 1.0080e+00 8.7258e-01 5.8991e-01 5.8894e-01
 9.6715e-02 2.3247e-04]
entropy correction =  -0.038886517878683365
cycle= 21 E= -13.4037809992694  delta_E= -1.89e-06  |g|= 0.000369  |ddm|= 0.00291
HOMO:  -0.3665679094718614 LUMO:  -0.36520867997354234
Fermi energy:      -0.3664900491
[2.0000e+00 1.9988e+00 1.9874e+00 1.9855e+00 1.9621e+00 1.9618e+00
 1.9398e+00 1.0086e+00 1.0078e+00 8.7256e-01 5.8979e-01 5.8900e-01
 9.6713e-02 2.3249e-04]
entropy correction =  -0.038886526745548745
cycle= 22 E= -13.4037811175411  delta_E= -1.18e-07  |g|= 4.91e-05  |ddm|= 0.000874
HOMO:  -0.36657251725734546 LUMO:  -0.36521126921343877
Fermi energy:      -0.3664934110
[2.0000e+00 1.9988e+00 1.9874e+00 1.9855e+00 1.9621e+00 1.9618e+00
 1.9398e+00 1.0087e+00 1.0079e+00 8.7248e-01 5.8973e-01 5.8894e-01
 9.6705e-02 2.3250e-04]
entropy correction =  -0.038885674159612915
cycle= 23 E= -13.403781119393  delta_E= -1.85e-09  |g|= 2.27e-05  |ddm|= 0.00014
HOMO:  -0.36657298589558507 LUMO:  -0.36521127028770295
Fermi energy:      -0.3664937634
[2.0000e+00 1.9988e+00 1.9874e+00 1.9855e+00 1.9621e+00 1.9618e+00
 1.9398e+00 1.0087e+00 1.0079e+00 8.7245e-01 5.8973e-01 5.8894e-01
 9.6700e-02 2.3249e-04]
entropy correction =  -0.03888539602410895
cycle= 24 E= -13.4037811196354  delta_E= -2.42e-10  |g|= 1.52e-05  |ddm|= 8.78e-05
HOMO:  -0.3665752858335353 LUMO:  -0.36521257873126384
Fermi energy:      -0.3664953615
[2.0000e+00 1.9988e+00 1.9874e+00 1.9855e+00 1.9621e+00 1.9618e+00
 1.9398e+00 1.0088e+00 1.0080e+00 8.7242e-01 5.8967e-01 5.8895e-01
 9.6697e-02 2.3250e-04]
entropy correction =  -0.03888518466581348
Extra cycle  E= -13.4037811126891  delta_E= 6.95e-09  |g|= 9.31e-05  |ddm|= 0.000244
entropy correction =  -0.03888518466581348
rks_ao.ne_frozen =  0
Set gradient conv threshold to 3.16228e-05
Initial guess from hcore.
HOMO:  -2.570856915749291 LUMO:  -2.5703620386651145
Fermi energy:      -2.5712264118
[2.0000e+00 2.0000e+00 2.0000e+00 2.0000e+00 2.0000e+00 2.0000e+00
 2.0000e+00 1.9952e+00 9.6307e-01 9.1378e-01 6.0704e-02 5.8731e-02
 3.9970e-03 3.7551e-03 7.4027e-04]
tot grids = 190200
init E= -9.69352623789631
HOMO:  0.01985269376541094 LUMO:  0.022745607266509777
Fermi energy:       0.0196690716
[2.     2.     2.     2.     2.     2.     1.9949 1.3616 0.9816 0.7017
 0.449  0.2223 0.1119 0.084  0.0438 0.0357 0.0084 0.0027 0.0024]
entropy correction =  -0.03497734043991646
cycle= 1 E= -10.9844116353325  delta_E= -1.29  |g|= 2.09  |ddm|= 9.58
HOMO:  -0.45047625944603115 LUMO:  -0.43955872181616634
Fermi energy:      -0.4449882961
[2.     2.     2.     2.     2.     2.     1.9994 1.5769 1.4996 0.5048
 0.2029 0.1799 0.0341 0.0023]
entropy correction =  -0.02373181235634898
cycle= 2 E= -11.0812558504808  delta_E= -0.0968  |g|= 2.12  |ddm|=  9.4
HOMO:  -0.2977060992427814 LUMO:  -0.2838444161772141
Fermi energy:      -0.2895571959
[2.     2.     2.     2.     1.9966 1.986  1.9778 1.698  1.6723 0.4837
 0.0683 0.0628 0.0483 0.0032 0.0029]
entropy correction =  -0.019643006761123592
cycle= 3 E= -12.2902749947481  delta_E= -1.21  |g|= 0.893  |ddm|= 1.82
HOMO:  -0.2602192076832195 LUMO:  -0.2570591484518072
Fermi energy:      -0.2585907553
[2.0000e+00 2.0000e+00 2.0000e+00 2.0000e+00 1.9992e+00 1.9513e+00
 1.9058e+00 1.7579e+00 1.1614e+00 8.4803e-01 1.5428e-01 1.3719e-01
 8.1885e-02 1.8070e-03 9.9290e-04 1.5971e-04]
entropy correction =  -0.027436359563902966
cycle= 4 E= -11.4905865702904  delta_E=  0.8  |g|= 1.31  |ddm|= 2.13
HOMO:  -0.23847973089033897 LUMO:  -0.23235807825255309
Fermi energy:      -0.2358751848
[2.0000e+00 2.0000e+00 2.0000e+00 2.0000e+00 1.9703e+00 1.9341e+00
 1.8460e+00 1.2871e+00 1.2547e+00 6.6211e-01 6.5292e-01 2.8382e-01
 7.3852e-02 2.1513e-02 1.2959e-02 6.3597e-04]
entropy correction =  -0.037397421809689226
cycle= 5 E= -12.7638354354513  delta_E= -1.27  |g|= 0.128  |ddm|= 2.07
HOMO:  -0.21763203880764193 LUMO:  -0.2149403547651033
Fermi energy:      -0.2162991374
[2.0000e+00 2.0000e+00 2.0000e+00 2.0000e+00 1.9569e+00 1.9417e+00
 1.7712e+00 1.5543e+00 1.1325e+00 8.6495e-01 3.9613e-01 2.4256e-01
 1.1060e-01 1.6871e-02 1.1671e-02 6.4297e-04]
entropy correction =  -0.03658765113544276
cycle= 6 E= -12.5574893012403  delta_E= 0.206  |g|= 0.531  |ddm|= 1.39
HOMO:  -0.2177202157583806 LUMO:  -0.21336463561735813
Fermi energy:      -0.2151657984
[2.0000e+00 2.0000e+00 2.0000e+00 2.0000e+00 1.9293e+00 1.7913e+00
 1.7457e+00 1.2635e+00 1.2500e+00 8.2181e-01 7.1811e-01 3.5072e-01
 9.4627e-02 1.8864e-02 1.5120e-02 9.0720e-04]
entropy correction =  -0.04274574779078743
cycle= 7 E= -12.774819822022  delta_E= -0.217  |g|= 0.0536  |ddm|= 1.12
HOMO:  -0.21805454811942818 LUMO:  -0.2141154146564994
Fermi energy:      -0.2157416486
[2.0000e+00 2.0000e+00 2.0000e+00 2.0000e+00 1.9364e+00 1.8728e+00
 1.7058e+00 1.2359e+00 1.2273e+00 8.3880e-01 6.8485e-01 3.7629e-01
 8.9342e-02 1.6349e-02 1.5464e-02 7.7907e-04]
entropy correction =  -0.042125218225530815
cycle= 8 E= -12.7710127397526  delta_E= 0.00381  |g|= 0.0921  |ddm|= 0.326
HOMO:  -0.21828958434526527 LUMO:  -0.21325961268138233
Fermi energy:      -0.2158727542
[2.0000e+00 2.0000e+00 2.0000e+00 2.0000e+00 1.9331e+00 1.8199e+00
 1.7865e+00 1.2486e+00 1.2371e+00 7.4448e-01 7.3329e-01 3.7526e-01
 8.9656e-02 1.6202e-02 1.5138e-02 7.9827e-04]
entropy correction =  -0.041937662675894105
cycle= 9 E= -12.7757269496828  delta_E= -0.00471  |g|= 0.0533  |ddm|= 0.272
HOMO:  -0.21775793403035792 LUMO:  -0.21293129352772178
Fermi energy:      -0.2154148156
[2.0000e+00 2.0000e+00 2.0000e+00 2.0000e+00 1.9313e+00 1.8147e+00
 1.8013e+00 1.2354e+00 1.2301e+00 7.5663e-01 7.3230e-01 3.7614e-01
 9.0094e-02 1.5962e-02 1.5295e-02 8.1266e-04]
entropy correction =  -0.04195685041736259
cycle= 10 E= -12.7774436468804  delta_E= -0.00172  |g|= 0.0236  |ddm|= 0.122
HOMO:  -0.21802979425663313 LUMO:  -0.213121798313771
Fermi energy:      -0.2156691833
[2.0000e+00 2.0000e+00 2.0000e+00 2.0000e+00 1.9311e+00 1.8073e+00
 1.8035e+00 1.2357e+00 1.2318e+00 7.5063e-01 7.4410e-01 3.7388e-01
 8.9965e-02 1.6006e-02 1.5314e-02 8.0847e-04]
entropy correction =  -0.04201402056854829
cycle= 11 E= -12.7776246290745  delta_E= -0.000181  |g|= 0.0187  |ddm|= 0.0568
HOMO:  -0.21833556759112982 LUMO:  -0.21345236354712221
Fermi energy:      -0.2159785516
[2.0000e+00 2.0000e+00 2.0000e+00 2.0000e+00 1.9311e+00 1.8041e+00
 1.8015e+00 1.2362e+00 1.2314e+00 7.5262e-01 7.4912e-01 3.7214e-01
 8.9580e-02 1.5721e-02 1.5665e-02 8.0212e-04]
entropy correction =  -0.04207090422707476
cycle= 12 E= -12.7778780096362  delta_E= -0.000253  |g|= 0.00441  |ddm|= 0.0366
HOMO:  -0.21839755468299615 LUMO:  -0.21351018095529575
Fermi energy:      -0.2160329134
[2.0000e+00 2.0000e+00 2.0000e+00 2.0000e+00 1.9312e+00 1.8044e+00
 1.8014e+00 1.2346e+00 1.2322e+00 7.5295e-01 7.4918e-01 3.7240e-01
 8.9466e-02 1.5768e-02 1.5581e-02 7.9955e-04]
entropy correction =  -0.04206858693107877
cycle= 13 E= -12.7778819706075  delta_E= -3.96e-06  |g|= 0.00409  |ddm|= 0.0134
HOMO:  -0.21849599040862638 LUMO:  -0.21361766259290382
Fermi energy:      -0.2161278373
[2.0000e+00 2.0000e+00 2.0000e+00 2.0000e+00 1.9313e+00 1.8036e+00
 1.8009e+00 1.2338e+00 1.2325e+00 7.5413e-01 7.4982e-01 3.7250e-01
 8.9316e-02 1.5817e-02 1.5496e-02 7.9573e-04]
entropy correction =  -0.04208518314589822
cycle= 14 E= -12.7778918044225  delta_E= -9.83e-06  |g|= 0.0019  |ddm|= 0.0103
HOMO:  -0.21839717741626175 LUMO:  -0.213478948631479
Fermi energy:      -0.2160276308
[2.0000e+00 2.0000e+00 2.0000e+00 2.0000e+00 1.9312e+00 1.8047e+00
 1.8031e+00 1.2341e+00 1.2326e+00 7.5051e-01 7.4971e-01 3.7257e-01
 8.9390e-02 1.5791e-02 1.5545e-02 8.0075e-04]
entropy correction =  -0.0420429151334307
cycle= 15 E= -12.7778951990588  delta_E= -3.39e-06  |g|= 0.000523  |ddm|= 0.00577
HOMO:  -0.2184030870090639 LUMO:  -0.21348661598402505
Fermi energy:      -0.2160310092
[2.0000e+00 2.0000e+00 2.0000e+00 2.0000e+00 1.9312e+00 1.8042e+00
 1.8024e+00 1.2341e+00 1.2329e+00 7.5091e-01 7.5022e-01 3.7261e-01
 8.9363e-02 1.5796e-02 1.5551e-02 8.0034e-04]
entropy correction =  -0.04205872015591325
cycle= 16 E= -12.777895358353  delta_E= -1.59e-07  |g|= 0.000208  |ddm|= 0.00139
HOMO:  -0.21840472650404294 LUMO:  -0.21349181807427103
Fermi energy:      -0.2160335213
[2.0000e+00 2.0000e+00 2.0000e+00 2.0000e+00 1.9312e+00 1.8044e+00
 1.8022e+00 1.2342e+00 1.2328e+00 7.5117e-01 7.4999e-01 3.7258e-01
 8.9363e-02 1.5793e-02 1.5552e-02 8.0029e-04]
entropy correction =  -0.04205829676354069
cycle= 17 E= -12.7778952847067  delta_E= 7.36e-08  |g|= 0.000365  |ddm|= 0.00123
HOMO:  -0.2184040798134689 LUMO:  -0.21348823679207593
Fermi energy:      -0.2160328817
[2.0000e+00 2.0000e+00 2.0000e+00 2.0000e+00 1.9312e+00 1.8043e+00
 1.8024e+00 1.2341e+00 1.2328e+00 7.5089e-01 7.5016e-01 3.7262e-01
 8.9357e-02 1.5791e-02 1.5551e-02 8.0018e-04]
entropy correction =  -0.04205655004211357
cycle= 18 E= -12.7778953908107  delta_E= -1.06e-07  |g|= 6.23e-05  |ddm|= 0.000853
HOMO:  -0.21840355590727106 LUMO:  -0.21348734681246204
Fermi energy:      -0.2160321064
[2.0000e+00 2.0000e+00 2.0000e+00 2.0000e+00 1.9312e+00 1.8042e+00
 1.8025e+00 1.2341e+00 1.2328e+00 7.5088e-01 7.5016e-01 3.7260e-01
 8.9358e-02 1.5796e-02 1.5547e-02 8.0026e-04]
entropy correction =  -0.04205637901780656
cycle= 19 E= -12.7778953592586  delta_E= 3.16e-08  |g|= 0.000216  |ddm|= 0.000498
HOMO:  -0.21840469272661195 LUMO:  -0.21348877404183159
Fermi energy:      -0.2160332627
[2.0000e+00 2.0000e+00 2.0000e+00 2.0000e+00 1.9312e+00 1.8043e+00
 1.8025e+00 1.2341e+00 1.2328e+00 7.5090e-01 7.5018e-01 3.7260e-01
 8.9357e-02 1.5793e-02 1.5549e-02 8.0021e-04]
entropy correction =  -0.042056986846207296
cycle= 20 E= -12.7778953944543  delta_E= -3.52e-08  |g|= 1.79e-05  |ddm|= 0.0004
HOMO:  -0.21840545006858936 LUMO:  -0.21348946812049
Fermi energy:      -0.2160340573
[2.0000e+00 2.0000e+00 2.0000e+00 2.0000e+00 1.9312e+00 1.8042e+00
 1.8025e+00 1.2341e+00 1.2328e+00 7.5089e-01 7.5022e-01 3.7259e-01
 8.9357e-02 1.5793e-02 1.5550e-02 8.0018e-04]
entropy correction =  -0.042057227039592554
cycle= 21 E= -12.7778953931403  delta_E= 1.31e-09  |g|= 4.47e-05  |ddm|= 0.000103
HOMO:  -0.21840490261708714 LUMO:  -0.21348892579562545
Fermi energy:      -0.2160335074
[2.0000e+00 2.0000e+00 2.0000e+00 2.0000e+00 1.9312e+00 1.8043e+00
 1.8025e+00 1.2341e+00 1.2328e+00 7.5090e-01 7.5018e-01 3.7260e-01
 8.9356e-02 1.5793e-02 1.5549e-02 8.0020e-04]
entropy correction =  -0.04205667770957827
cycle= 22 E= -12.7778953943857  delta_E= -1.25e-09  |g|= 1.98e-05  |ddm|= 9.27e-05
HOMO:  -0.2184050262010091 LUMO:  -0.21348912691065786
Fermi energy:      -0.2160336063
[2.0000e+00 2.0000e+00 2.0000e+00 2.0000e+00 1.9312e+00 1.8043e+00
 1.8024e+00 1.2341e+00 1.2328e+00 7.5090e-01 7.5018e-01 3.7260e-01
 8.9356e-02 1.5793e-02 1.5549e-02 8.0019e-04]
entropy correction =  -0.04205679180600174
cycle= 23 E= -12.7778953946278  delta_E= -2.42e-10  |g|= 8.83e-06  |ddm|= 4.7e-05
HOMO:  -0.21840476921780094 LUMO:  -0.21348847164031787
Fermi energy:      -0.2160333586
[2.0000e+00 2.0000e+00 2.0000e+00 2.0000e+00 1.9312e+00 1.8042e+00
 1.8025e+00 1.2341e+00 1.2328e+00 7.5087e-01 7.5021e-01 3.7260e-01
 8.9356e-02 1.5793e-02 1.5549e-02 8.0020e-04]
entropy correction =  -0.042056755856787136
Extra cycle  E= -12.7778953920487  delta_E= 2.58e-09  |g|= 5.78e-05  |ddm|= 0.000127
degenerate subspace detected:
nsub = 3
subspace 1:
5, 6, 
subspace 2:
8, 9, 
subspace 3:
11, 12, 

 Adding contributions from fluctuation of occupation numbers.
degenerate subspace detected:
nsub = 4
subspace 1:
6, 7, 
subspace 2:
8, 9, 
subspace 3:
10, 11, 
subspace 4:
14, 15, 

 Adding contributions from fluctuation of occupation numbers.
entropy correction =  -0.042056755856787136
2-norm (grad),       max(grad):
0.04848066556908913 ,  0.0032842241454136556
time of hessian construction : 30.600  (cpu),  1.121  (wall) 
time of hessian construction : 26.240  (cpu),  0.658  (wall) 
f =  0.0011751874670109322
|umat| =  3.162751888256107
rks_ao.ne_frozen =  0
Set gradient conv threshold to 3.16228e-05
Initial guess from hcore.
HOMO:  -3.5702073278345683 LUMO:  -3.536466115805786
Fermi energy:      -3.5533367219
[2.     2.     2.     2.     2.     2.     2.     2.     1.9338 0.0662]
tot grids = 190200
init E= -15.9137678428695
HOMO:  -0.21832877608018508 LUMO:  -0.18105517626337017
Fermi energy:      -0.1993938766
[2.0000e+00 2.0000e+00 2.0000e+00 2.0000e+00 2.0000e+00 2.0000e+00
 2.0000e+00 1.9940e+00 1.9557e+00 4.9797e-02 5.4286e-04]
entropy correction =  -0.0024603294839540078
cycle= 1 E= -16.5117572548562  delta_E= -0.598  |g|= 2.64  |ddm|= 35.4
HOMO:  -0.8496302291301424 LUMO:  -0.8115041508608934
Fermi energy:      -0.8305675312
[2.     2.     2.     2.     2.     2.     2.     2.     1.9568 0.0432]
entropy correction =  -0.0020854740955644365
cycle= 2 E= -17.6887247394873  delta_E= -1.18  |g|= 1.99  |ddm|= 19.8
HOMO:  -0.5294311047940541 LUMO:  -0.5109692201441037
Fermi energy:      -0.5203511662
[2.     2.     2.     2.     2.     2.     2.     1.9884 1.7202 0.2656
 0.0258]
entropy correction =  -0.009013064525507788
cycle= 3 E= -18.6731534962107  delta_E= -0.984  |g|= 0.948  |ddm|= 10.5
HOMO:  -0.5179995219653326 LUMO:  -0.48641293701189886
Fermi energy:      -0.5023131539
[2.     2.     2.     2.     2.     2.     2.     1.9926 1.9168 0.0798
 0.0108]
entropy correction =  -0.0039898957575489075
cycle= 4 E= -18.9850484415703  delta_E= -0.312  |g|= 0.597  |ddm|= 4.03
HOMO:  -0.5293792983456802 LUMO:  -0.49968405930897647
Fermi energy:      -0.5139815533
[2.     2.     2.     2.     2.     2.     1.9997 1.9756 1.9121 0.1084
 0.0043]
entropy correction =  -0.004738144404254965
cycle= 5 E= -19.1278449524303  delta_E= -0.143  |g|= 0.213  |ddm|= 1.75
HOMO:  -0.5136090971083687 LUMO:  -0.494428358275793
Fermi energy:      -0.5047020332
[2.     2.     2.     2.     2.     2.     1.9999 1.9928 1.7117 0.2271
 0.0684]
entropy correction =  -0.009399607743672494
cycle= 6 E= -19.1374760124641  delta_E= -0.00963  |g|= 0.155  |ddm|= 0.95
HOMO:  -0.512185840793544 LUMO:  -0.48910909360361243
Fermi energy:      -0.5010200959
[2.     2.     2.     2.     2.     2.     1.9995 1.9878 1.8064 0.1691
 0.0372]
entropy correction =  -0.0073986116972258155
cycle= 7 E= -19.1491918604959  delta_E= -0.0117  |g|= 0.0503  |ddm|= 0.462
HOMO:  -0.5108124052630975 LUMO:  -0.4887073279307921
Fermi energy:      -0.5001470500
[2.     2.     2.     2.     2.     2.     1.9996 1.9834 1.7882 0.1843
 0.0445]
entropy correction =  -0.008018292236325024
cycle= 8 E= -19.1503030431019  delta_E= -0.00111  |g|= 0.0187  |ddm|= 0.117
HOMO:  -0.5109752324447 LUMO:  -0.4887698124912563
Fermi energy:      -0.5002950269
[2.     2.     2.     2.     2.     2.     1.9997 1.9869 1.7887 0.1814
 0.0433]
entropy correction =  -0.00786816062337721
cycle= 9 E= -19.150333956979  delta_E= -3.09e-05  |g|= 0.0167  |ddm|= 0.0851
HOMO:  -0.5110890818398504 LUMO:  -0.48906957070031704
Fermi energy:      -0.5005323519
[2.     2.     2.     2.     2.     2.     1.9997 1.9853 1.784  0.1835
 0.0476]
entropy correction =  -0.008064781625206893
cycle= 10 E= -19.1504610698355  delta_E= -0.000127  |g|= 0.00559  |ddm|= 0.0534
HOMO:  -0.5109871482902675 LUMO:  -0.48903765734194793
Fermi energy:      -0.5004289489
[2.     2.     2.     2.     2.     2.     1.9997 1.9847 1.7841 0.1859
 0.0457]
entropy correction =  -0.008071056101797182
cycle= 11 E= -19.1504752205665  delta_E= -1.42e-05  |g|= 0.00169  |ddm|= 0.0229
HOMO:  -0.5109758321572297 LUMO:  -0.48898876980402795
Fermi energy:      -0.5004012532
[2.     2.     2.     2.     2.     2.     1.9997 1.9847 1.7847 0.1852
 0.0458]
entropy correction =  -0.0080570632366792
cycle= 12 E= -19.1504775089101  delta_E= -2.29e-06  |g|= 0.000271  |ddm|= 0.00866
HOMO:  -0.5109836727427387 LUMO:  -0.4889893130164158
Fermi energy:      -0.5004065852
[2.     2.     2.     2.     2.     2.     1.9997 1.9847 1.7848 0.185
 0.0458]
entropy correction =  -0.008054755792474227
cycle= 13 E= -19.1504775440416  delta_E= -3.51e-08  |g|= 8.57e-05  |ddm|= 0.00132
HOMO:  -0.5109851393785547 LUMO:  -0.4889911128518177
Fermi energy:      -0.5004080442
[2.     2.     2.     2.     2.     2.     1.9997 1.9847 1.7848 0.185
 0.0458]
entropy correction =  -0.00805501606502872
cycle= 14 E= -19.1504775495086  delta_E= -5.47e-09  |g|= 1.84e-05  |ddm|= 0.0004
HOMO:  -0.5109829127275878 LUMO:  -0.4889893664791889
Fermi energy:      -0.5004060108
[2.     2.     2.     2.     2.     2.     1.9997 1.9847 1.7848 0.185
 0.0458]
entropy correction =  -0.008055172135632125
cycle= 15 E= -19.1504775497152  delta_E= -2.07e-10  |g|= 4.77e-06  |ddm|= 8.89e-05
HOMO:  -0.5109843237376083 LUMO:  -0.4889905332578149
Fermi energy:      -0.5004073103
[2.     2.     2.     2.     2.     2.     1.9997 1.9847 1.7848 0.185
 0.0458]
entropy correction =  -0.008055076751759175
Extra cycle  E= -19.1504775497088  delta_E= 6.43e-12  |g|= 5.72e-06  |ddm|= 4.65e-05
entropy correction =  -0.008055076751759175
rks_ao.ne_frozen =  0
Set gradient conv threshold to 3.16228e-05
Initial guess from hcore.
HOMO:  -2.7075254691781674 LUMO:  -2.664526490187637
Fermi energy:      -2.6856836851
[2.     2.     2.     2.     2.     2.     1.9999 1.9965 1.975  0.0286]
tot grids = 190200
init E= -16.5587668593437
HOMO:  -0.18692011804614805 LUMO:  -0.1060359380794514
Fermi energy:      -0.1470985673
[2.0000e+00 2.0000e+00 2.0000e+00 2.0000e+00 2.0000e+00 2.0000e+00
 2.0000e+00 2.0000e+00 1.9993e+00 5.4232e-04 1.5387e-04]
entropy correction =  -6.441511791109167e-05
cycle= 1 E= -18.2181562990931  delta_E= -1.66  |g|= 1.49  |ddm|= 14.6
HOMO:  -0.43762192388805593 LUMO:  -0.4148637977966328
Fermi energy:      -0.4262367529
[2.     2.     2.     2.     2.     2.     2.     1.9995 1.8139 0.1865]
entropy correction =  -0.0062246931047055835
cycle= 2 E= -18.473958880868  delta_E= -0.256  |g|= 1.08  |ddm|= 7.86
HOMO:  -0.3431204868294083 LUMO:  -0.31201060113626056
Fermi energy:      -0.3276077366
[2.0000e+00 2.0000e+00 2.0000e+00 2.0000e+00 2.0000e+00 2.0000e+00
 2.0000e+00 2.0000e+00 1.9140e+00 8.4626e-02 8.0524e-04 5.7839e-04]
entropy correction =  -0.003588489899772455
cycle= 3 E= -18.8788892045514  delta_E= -0.405  |g|= 0.411  |ddm|= 3.03
HOMO:  -0.3307345013759136 LUMO:  -0.2911167358890076
Fermi energy:      -0.3110798140
[2.0000e+00 2.0000e+00 2.0000e+00 2.0000e+00 2.0000e+00 2.0000e+00
 2.0000e+00 2.0000e+00 1.9615e+00 3.6234e-02 2.0724e-03 1.9149e-04]
entropy correction =  -0.001949109136685113
cycle= 4 E= -18.9342265229132  delta_E= -0.0553  |g|= 0.219  |ddm|= 1.43
HOMO:  -0.33364234485290334 LUMO:  -0.29176901163250074
Fermi energy:      -0.3127536872
[2.0000e+00 2.0000e+00 2.0000e+00 2.0000e+00 2.0000e+00 2.0000e+00
 2.0000e+00 2.0000e+00 1.9698e+00 2.9637e-02 4.8580e-04]
entropy correction =  -0.001582038238983243
cycle= 5 E= -18.9485343882931  delta_E= -0.0143  |g|= 0.0719  |ddm|= 0.519
HOMO:  -0.3319610336473705 LUMO:  -0.292262598743862
Fermi energy:      -0.3121863563
[2.0000e+00 2.0000e+00 2.0000e+00 2.0000e+00 2.0000e+00 2.0000e+00
 2.0000e+00 2.0000e+00 1.9624e+00 3.6515e-02 9.5136e-04 1.3734e-04]
entropy correction =  -0.0018940434414461305
cycle= 6 E= -18.9506555112081  delta_E= -0.00212  |g|= 0.0305  |ddm|= 0.288
HOMO:  -0.33094534940618847 LUMO:  -0.2911483725550088
Fermi energy:      -0.3111318346
[2.0000e+00 2.0000e+00 2.0000e+00 2.0000e+00 2.0000e+00 2.0000e+00
 2.0000e+00 2.0000e+00 1.9627e+00 3.6089e-02 1.0948e-03 1.3240e-04]
entropy correction =  -0.0018850148251952344
cycle= 7 E= -18.9510103909024  delta_E= -0.000355  |g|= 0.015  |ddm|= 0.115
HOMO:  -0.33126752674115434 LUMO:  -0.29086306767624004
Fermi energy:      -0.3111393826
[2.0000e+00 2.0000e+00 2.0000e+00 2.0000e+00 2.0000e+00 2.0000e+00
 2.0000e+00 2.0000e+00 1.9649e+00 3.4071e-02 8.8110e-04 1.2881e-04]
entropy correction =  -0.0017914300224238996
cycle= 8 E= -18.9510976228856  delta_E= -8.72e-05  |g|= 0.00452  |ddm|= 0.0378
HOMO:  -0.33121620210315483 LUMO:  -0.29093906423102767
Fermi energy:      -0.3111543460
[2.0000e+00 2.0000e+00 2.0000e+00 2.0000e+00 2.0000e+00 2.0000e+00
 2.0000e+00 2.0000e+00 1.9645e+00 3.4483e-02 9.2833e-04 1.3024e-04]
entropy correction =  -0.0018108972372284599
cycle= 9 E= -18.9511075289372  delta_E= -9.91e-06  |g|= 0.00169  |ddm|= 0.0176
HOMO:  -0.33117677117978456 LUMO:  -0.29091849106579437
Fermi energy:      -0.3111238503
[2.0000e+00 2.0000e+00 2.0000e+00 2.0000e+00 2.0000e+00 2.0000e+00
 2.0000e+00 2.0000e+00 1.9644e+00 3.4550e-02 9.2371e-04 1.2995e-04]
entropy correction =  -0.0018133164516502395
cycle= 10 E= -18.9511085004962  delta_E= -9.72e-07  |g|= 0.000317  |ddm|= 0.00465
HOMO:  -0.33118132155453994 LUMO:  -0.29092265276296
Fermi energy:      -0.3111281136
[2.0000e+00 2.0000e+00 2.0000e+00 2.0000e+00 2.0000e+00 2.0000e+00
 2.0000e+00 2.0000e+00 1.9644e+00 3.4549e-02 9.2235e-04 1.3001e-04]
entropy correction =  -0.00181321248010666
cycle= 11 E= -18.9511085424386  delta_E= -4.19e-08  |g|= 5.57e-05  |ddm|= 0.0011
HOMO:  -0.33118531927315337 LUMO:  -0.29092711830365425
Fermi energy:      -0.3111323758
[2.0000e+00 2.0000e+00 2.0000e+00 2.0000e+00 2.0000e+00 2.0000e+00
 2.0000e+00 2.0000e+00 1.9644e+00 3.4551e-02 9.2278e-04 1.3004e-04]
entropy correction =  -0.0018132960529946727
cycle= 12 E= -18.9511085438382  delta_E= -1.4e-09  |g|= 9.01e-06  |ddm|= 0.000253
HOMO:  -0.3311853234637091 LUMO:  -0.2909272331631793
Fermi energy:      -0.3111324289
[2.0000e+00 2.0000e+00 2.0000e+00 2.0000e+00 2.0000e+00 2.0000e+00
 2.0000e+00 2.0000e+00 1.9644e+00 3.4551e-02 9.2272e-04 1.3003e-04]
entropy correction =  -0.0018133082640593241
cycle= 13 E= -18.9511085438786  delta_E= -4.04e-11  |g|= 3.1e-06  |ddm|= 4.38e-05
HOMO:  -0.3311851356875924 LUMO:  -0.2909268293766526
Fermi energy:      -0.3111321372
[2.0000e+00 2.0000e+00 2.0000e+00 2.0000e+00 2.0000e+00 2.0000e+00
 2.0000e+00 2.0000e+00 1.9644e+00 3.4550e-02 9.2274e-04 1.3004e-04]
entropy correction =  -0.0018132797008012192
Extra cycle  E= -18.9511085438773  delta_E= 1.3e-12  |g|= 3.92e-06  |ddm|= 2.13e-05
 Adding contributions from fluctuation of occupation numbers.
 Adding contributions from fluctuation of occupation numbers.
entropy correction =  -0.0018132797008012192
2-norm (grad),       max(grad):
64.45632671738223 ,  11.698864038533925
time of hessian construction : 16.260  (cpu),  0.407  (wall) 
time of hessian construction : 19.380  (cpu),  0.486  (wall) 
f =  2077.309026948961
|umat| =  2.7882370990979095
rks_ao.ne_frozen =  0
Set gradient conv threshold to 3.16228e-05
Initial guess from hcore.
HOMO:  -3.5031383324887515 LUMO:  -3.401652980858316
Fermi energy:      -3.4517925187
[2.     2.     2.     2.     2.     2.     2.     2.     1.9999]
tot grids = 190200
init E= -10.2279314172989
HOMO:  -0.0813778128666816 LUMO:  -0.078238382167471
Fermi energy:      -0.0814394211
[2.     2.     2.     2.     2.     2.     1.9998 1.9334 0.9938 0.6904
 0.31   0.0726]
entropy correction =  -0.020719789359990384
cycle= 1 E= -10.6295958584259  delta_E= -0.402  |g|= 2.72  |ddm|= 8.55
HOMO:  -0.7857972265811436 LUMO:  -0.7135713158012216
Fermi energy:      -0.7493751066
[2.0000e+00 2.0000e+00 2.0000e+00 2.0000e+00 2.0000e+00 2.0000e+00
 2.0000e+00 1.9998e+00 1.9986e+00 1.5517e-03]
entropy correction =  -0.00012972082328600512
cycle= 2 E= -11.5924736551033  delta_E= -0.963  |g|= 2.16  |ddm|= 6.76
HOMO:  -0.4501547535855671 LUMO:  -0.44862667198739714
Fermi energy:      -0.4498161156
[2.0000e+00 2.0000e+00 2.0000e+00 2.0000e+00 2.0000e+00 1.9996e+00
 1.9978e+00 1.9746e+00 1.0339e+00 8.8161e-01 1.0870e-01 3.3445e-03
 5.2493e-04]
entropy correction =  -0.01683220936015301
cycle= 3 E= -13.0275167487332  delta_E= -1.44  |g|= 1.17  |ddm|= 4.76
HOMO:  -0.4287358142463098 LUMO:  -0.3948195541726409
Fermi energy:      -0.4112629360
[2.     2.     2.     2.     2.     1.9993 1.9993 1.9671 1.9411 0.0719
 0.019  0.0024]
entropy correction =  -0.004409662917305439
cycle= 4 E= -12.6057637611325  delta_E= 0.422  |g|= 1.41  |ddm|= 3.61
HOMO:  -0.4215684952451165 LUMO:  -0.4100191473563879
Fermi energy:      -0.4155599228
[2.     2.     2.     2.     1.9998 1.9971 1.9924 1.9588 1.5377 0.4964
 0.0145 0.0033]
entropy correction =  -0.012938001867543751
cycle= 5 E= -13.5316574066575  delta_E= -0.926  |g|= 0.653  |ddm|=  1.7
HOMO:  -0.40329637970871807 LUMO:  -0.39316580648685334
Fermi energy:      -0.3979927492
[2.     2.     2.     2.     1.999  1.9908 1.9655 1.7826 1.4857 0.5516
 0.1952 0.0296]
entropy correction =  -0.02020948220662292
cycle= 6 E= -13.3951037318896  delta_E= 0.137  |g|= 0.774  |ddm|= 1.65
HOMO:  -0.3909532941369359 LUMO:  -0.38087806889719594
Fermi energy:      -0.3861499874
[2.     2.     1.9998 1.9997 1.9976 1.9851 1.9813 1.8816 1.4465 0.5168
 0.1792 0.0123]
entropy correction =  -0.018342718973302533
cycle= 7 E= -13.6741450923915  delta_E= -0.279  |g|= 0.389  |ddm|= 1.38
HOMO:  -0.38817147459529144 LUMO:  -0.37969257562253744
Fermi energy:      -0.3835358453
[2.     2.     1.9997 1.9995 1.9947 1.9845 1.9565 1.8836 1.433  0.6335
 0.0852 0.0296]
entropy correction =  -0.0186829153968656
cycle= 8 E= -13.6607467919378  delta_E= 0.0134  |g|= 0.407  |ddm|= 0.918
HOMO:  -0.3828650586614167 LUMO:  -0.37334651218605136
Fermi energy:      -0.3776135082
[2.0000e+00 2.0000e+00 1.9999e+00 1.9992e+00 1.9958e+00 1.9654e+00
 1.9265e+00 1.8251e+00 1.4817e+00 5.9744e-01 1.8498e-01 2.3833e-02
 1.6455e-04]
entropy correction =  -0.02116241303370208
cycle= 9 E= -13.6975967391686  delta_E= -0.0368  |g|= 0.327  |ddm|= 0.92
HOMO:  -0.37316528212990874 LUMO:  -0.3701149485138279
Fermi energy:      -0.3711820755
[2.0000e+00 2.0000e+00 1.9999e+00 1.9983e+00 1.9912e+00 1.9824e+00
 1.9104e+00 1.8390e+00 1.1958e+00 8.9369e-01 1.5697e-01 3.2039e-02
 3.4435e-04]
entropy correction =  -0.022692013000644048
cycle= 10 E= -13.7486981860757  delta_E= -0.0511  |g|= 0.168  |ddm|= 0.622
HOMO:  -0.3865909043800212 LUMO:  -0.36880712631102214
Fermi energy:      -0.3765323500
[2.0000e+00 2.0000e+00 1.9995e+00 1.9984e+00 1.9904e+00 1.9569e+00
 1.9410e+00 1.8217e+00 1.7640e+00 3.5161e-01 1.6411e-01 1.2182e-02
 1.4646e-04]
entropy correction =  -0.017261796791685408
cycle= 11 E= -13.7442480000381  delta_E= 0.00445  |g|= 0.176  |ddm|= 0.722
HOMO:  -0.3814493919468133 LUMO:  -0.37364225474210333
Fermi energy:      -0.3776733149
[2.0000e+00 2.0000e+00 1.9998e+00 1.9993e+00 1.9937e+00 1.9816e+00
 1.9624e+00 1.8711e+00 1.3606e+00 6.1740e-01 1.8979e-01 2.3894e-02
 3.3840e-04]
entropy correction =  -0.020347578537302936
cycle= 12 E= -13.7660587126257  delta_E= -0.0218  |g|= 0.0644  |ddm|= 0.582
HOMO:  -0.3807125223840061 LUMO:  -0.37159649598912226
Fermi energy:      -0.3757968211
[2.0000e+00 2.0000e+00 1.9998e+00 1.9988e+00 1.9910e+00 1.9775e+00
 1.9458e+00 1.8379e+00 1.4555e+00 6.0304e-01 1.7097e-01 1.9527e-02
 2.9169e-04]
entropy correction =  -0.020485221238506185
cycle= 13 E= -13.7688509023633  delta_E= -0.00279  |g|= 0.0232  |ddm|= 0.252
HOMO:  -0.37972110312981444 LUMO:  -0.3707396511918763
Fermi energy:      -0.3751456993
[2.0000e+00 2.0000e+00 1.9998e+00 1.9988e+00 1.9907e+00 1.9788e+00
 1.9497e+00 1.8517e+00 1.4281e+00 5.8585e-01 1.9371e-01 2.2521e-02
 2.8886e-04]
entropy correction =  -0.02060634753855076
cycle= 14 E= -13.7693182430607  delta_E= -0.000467  |g|= 0.0134  |ddm|= 0.101
HOMO:  -0.3796286808041628 LUMO:  -0.37119622434702715
Fermi energy:      -0.3752423506
[2.0000e+00 2.0000e+00 1.9998e+00 1.9988e+00 1.9913e+00 1.9793e+00
 1.9476e+00 1.8489e+00 1.4125e+00 6.1611e-01 1.8325e-01 2.2154e-02
 3.0905e-04]
entropy correction =  -0.02072580728142782
cycle= 15 E= -13.7694751920544  delta_E= -0.000157  |g|= 0.0047  |ddm|= 0.0484
HOMO:  -0.37968684880752634 LUMO:  -0.37131355179669046
Fermi energy:      -0.3753450706
[2.0000e+00 2.0000e+00 1.9998e+00 1.9988e+00 1.9911e+00 1.9791e+00
 1.9488e+00 1.8466e+00 1.4088e+00 6.1736e-01 1.8715e-01 2.2127e-02
 3.0741e-04]
entropy correction =  -0.020805615279265832
cycle= 16 E= -13.7694876647394  delta_E= -1.25e-05  |g|= 0.00361  |ddm|= 0.0161
HOMO:  -0.3797685004170167 LUMO:  -0.3711938702714483
Fermi energy:      -0.3753273651
[2.0000e+00 2.0000e+00 1.9998e+00 1.9988e+00 1.9912e+00 1.9790e+00
 1.9488e+00 1.8481e+00 1.4170e+00 6.0869e-01 1.8643e-01 2.1943e-02
 3.0717e-04]
entropy correction =  -0.02070539234650361
cycle= 17 E= -13.7694865897807  delta_E= 1.07e-06  |g|= 0.00379  |ddm|= 0.0123
HOMO:  -0.3797456787527775 LUMO:  -0.37127746376844467
Fermi energy:      -0.3753562115
[2.0000e+00 2.0000e+00 1.9998e+00 1.9988e+00 1.9911e+00 1.9792e+00
 1.9485e+00 1.8480e+00 1.4128e+00 6.1333e-01 1.8613e-01 2.2007e-02
 3.0547e-04]
entropy correction =  -0.02074220561395612
cycle= 18 E= -13.7694961146759  delta_E= -9.52e-06  |g|= 0.000847  |ddm|= 0.00765
HOMO:  -0.3797617286100052 LUMO:  -0.37126973907103816
Fermi energy:      -0.3753605405
[2.0000e+00 2.0000e+00 1.9998e+00 1.9988e+00 1.9911e+00 1.9792e+00
 1.9486e+00 1.8479e+00 1.4137e+00 6.1231e-01 1.8613e-01 2.2035e-02
 3.0528e-04]
entropy correction =  -0.020733910486603994
cycle= 19 E= -13.7694966650549  delta_E= -5.5e-07  |g|= 0.000288  |ddm|= 0.00236
HOMO:  -0.3797603671219406 LUMO:  -0.3712577083797528
Fermi energy:      -0.3753540755
[2.0000e+00 2.0000e+00 1.9998e+00 1.9988e+00 1.9911e+00 1.9792e+00
 1.9486e+00 1.8479e+00 1.4142e+00 6.1184e-01 1.8621e-01 2.2011e-02
 3.0571e-04]
entropy correction =  -0.02073063390464953
cycle= 20 E= -13.7694966418977  delta_E= 2.32e-08  |g|= 0.000354  |ddm|= 0.00121
HOMO:  -0.3797757299603175 LUMO:  -0.37128012051757775
Fermi energy:      -0.3753741185
[2.0000e+00 2.0000e+00 1.9998e+00 1.9988e+00 1.9912e+00 1.9791e+00
 1.9487e+00 1.8480e+00 1.4138e+00 6.1204e-01 1.8630e-01 2.2010e-02
 3.0538e-04]
entropy correction =  -0.020732427673099577
cycle= 21 E= -13.7694966842655  delta_E= -4.24e-08  |g|= 0.00023  |ddm|= 0.00108
HOMO:  -0.37976547760614043 LUMO:  -0.3712703745122705
Fermi energy:      -0.3753640244
[2.0000e+00 2.0000e+00 1.9998e+00 1.9988e+00 1.9911e+00 1.9792e+00
 1.9487e+00 1.8480e+00 1.4138e+00 6.1207e-01 1.8628e-01 2.2022e-02
 3.0543e-04]
entropy correction =  -0.02073288955134042
cycle= 22 E= -13.7694967282692  delta_E= -4.4e-08  |g|= 7.53e-05  |ddm|= 0.00073
HOMO:  -0.37976615309137807 LUMO:  -0.3712673672611147
Fermi energy:      -0.3753623509
[2.0000e+00 2.0000e+00 1.9998e+00 1.9988e+00 1.9911e+00 1.9792e+00
 1.9487e+00 1.8480e+00 1.4140e+00 6.1195e-01 1.8625e-01 2.2018e-02
 3.0535e-04]
entropy correction =  -0.020732134120647595
cycle= 23 E= -13.7694967316824  delta_E= -3.41e-09  |g|= 4.09e-05  |ddm|= 0.000287
HOMO:  -0.3797661239849584 LUMO:  -0.3712693529711801
Fermi energy:      -0.3753632908
[2.0000e+00 2.0000e+00 1.9998e+00 1.9988e+00 1.9911e+00 1.9792e+00
 1.9487e+00 1.8480e+00 1.4139e+00 6.1204e-01 1.8624e-01 2.2019e-02
 3.0541e-04]
entropy correction =  -0.020732467505815505
cycle= 24 E= -13.7694967330169  delta_E= -1.33e-09  |g|= 7.68e-06  |ddm|= 0.000131
HOMO:  -0.37976671848880167 LUMO:  -0.3712694084279732
Fermi energy:      -0.3753636498
[2.0000e+00 2.0000e+00 1.9998e+00 1.9988e+00 1.9911e+00 1.9792e+00
 1.9487e+00 1.8480e+00 1.4139e+00 6.1202e-01 1.8624e-01 2.2018e-02
 3.0539e-04]
entropy correction =  -0.020732187728829194
cycle= 25 E= -13.7694967329991  delta_E= 1.78e-11  |g|= 1.02e-05  |ddm|= 4.58e-05
HOMO:  -0.37976468485746456 LUMO:  -0.37126961119779345
Fermi energy:      -0.3753627767
[2.0000e+00 2.0000e+00 1.9998e+00 1.9988e+00 1.9911e+00 1.9792e+00
 1.9487e+00 1.8479e+00 1.4138e+00 6.1211e-01 1.8625e-01 2.2022e-02
 3.0545e-04]
entropy correction =  -0.0207333932628773
Extra cycle  E= -13.76949673124  delta_E= 1.76e-09  |g|= 5.25e-05  |ddm|= 0.000139
entropy correction =  -0.0207333932628773
rks_ao.ne_frozen =  0
Set gradient conv threshold to 3.16228e-05
Initial guess from hcore.
HOMO:  -2.6052547716934256 LUMO:  -2.589540625118429
Fermi energy:      -2.5974010716
[2.0000e+00 2.0000e+00 2.0000e+00 2.0000e+00 2.0000e+00 2.0000e+00
 2.0000e+00 1.9999e+00 1.6558e+00 3.4384e-01 2.7707e-04 1.9321e-04]
tot grids = 190200
init E= -10.2011223958277
HOMO:  -0.02131815990981932 LUMO:  -0.008477009791540556
Fermi energy:      -0.0145697214
[2.0000e+00 2.0000e+00 2.0000e+00 2.0000e+00 2.0000e+00 2.0000e+00
 1.9995e+00 1.9302e+00 1.5882e+00 4.5639e-01 1.9948e-02 4.5724e-03
 1.1077e-03 1.4684e-04]
entropy correction =  -0.012771869014521884
cycle= 1 E= -11.4218700467745  delta_E= -1.22  |g|= 2.05  |ddm|= 9.24
HOMO:  -0.46369608231830933 LUMO:  -0.43226158158283784
Fermi energy:      -0.4473429625
[2.0000e+00 2.0000e+00 2.0000e+00 2.0000e+00 2.0000e+00 2.0000e+00
 1.9999e+00 1.9781e+00 1.9268e+00 9.3392e-02 1.7927e-03]
entropy correction =  -0.004139450260324727
cycle= 2 E= -8.37259819862928  delta_E= 3.05  |g|= 2.75  |ddm|= 8.93
HOMO:  -0.3737874282572509 LUMO:  -0.35003069713514867
Fermi energy:      -0.3620439629
[2.0000e+00 2.0000e+00 2.0000e+00 2.0000e+00 2.0000e+00 2.0000e+00
 1.9999e+00 1.9793e+00 1.8257e+00 1.6594e-01 2.4020e-02 4.7458e-03
 4.3239e-04]
entropy correction =  -0.007242599111407544
cycle= 3 E= -11.9380537484084  delta_E= -3.57  |g|= 1.58  |ddm|= 2.71
HOMO:  -0.28147550306164093 LUMO:  -0.26768065274627423
Fermi energy:      -0.2748452252
[2.0000e+00 2.0000e+00 2.0000e+00 2.0000e+00 2.0000e+00 2.0000e+00
 1.9995e+00 1.9006e+00 1.5804e+00 3.8529e-01 1.2287e-01 7.5247e-03
 3.0668e-03 6.7221e-04 1.8386e-04]
entropy correction =  -0.014750620355812365
cycle= 4 E= -11.895061040198  delta_E= 0.043  |g|= 1.37  |ddm|= 2.11
HOMO:  -0.2829734168713975 LUMO:  -0.27309427712600454
Fermi energy:      -0.2783525706
[2.0000e+00 2.0000e+00 2.0000e+00 2.0000e+00 2.0000e+00 2.0000e+00
 1.9995e+00 1.9062e+00 1.4318e+00 5.1781e-01 1.2304e-01 1.8466e-02
 2.3402e-03 7.0275e-04 1.5425e-04]
entropy correction =  -0.016568683655090337
cycle= 5 E= -11.8997938894079  delta_E= -0.00473  |g|= 1.37  |ddm|= 0.417
HOMO:  -0.2743424127418878 LUMO:  -0.267072272077304
Fermi energy:      -0.2711519481
[2.0000e+00 2.0000e+00 2.0000e+00 2.0000e+00 2.0000e+00 2.0000e+00
 1.9995e+00 1.8731e+00 1.3086e+00 6.1325e-01 1.2336e-01 7.8475e-02
 2.6549e-03 1.0151e-03]
entropy correction =  -0.019119931642245677
cycle= 6 E= -11.8234504015957  delta_E= 0.0763  |g|= 1.39  |ddm|= 1.12
HOMO:  -0.27257687927663526 LUMO:  -0.266341172137668
Fermi energy:      -0.2693975427
[2.0000e+00 2.0000e+00 2.0000e+00 2.0000e+00 2.0000e+00 2.0000e+00
 1.9982e+00 1.7876e+00 1.3076e+00 7.0354e-01 1.4505e-01 5.4712e-02
 2.4319e-03 6.5086e-04 1.7189e-04]
entropy correction =  -0.020381500644751752
cycle= 7 E= -12.5779913111262  delta_E= -0.755  |g|= 0.954  |ddm|= 1.04
HOMO:  -0.23928262155538932 LUMO:  -0.23581820254830047
Fermi energy:      -0.2383667174
[2.0000e+00 2.0000e+00 2.0000e+00 2.0000e+00 2.0000e+00 1.9998e+00
 1.9959e+00 1.9211e+00 1.0913e+00 7.5053e-01 1.0505e-01 9.4461e-02
 3.6900e-02 4.5678e-03 3.2199e-04]
entropy correction =  -0.020385149833811293
cycle= 8 E= -13.0621379960223  delta_E= -0.484  |g|= 0.418  |ddm|= 1.51
HOMO:  -0.2247409375864122 LUMO:  -0.21604062157206788
Fermi energy:      -0.2216835106
[2.0000e+00 2.0000e+00 2.0000e+00 2.0000e+00 2.0000e+00 1.9999e+00
 1.9994e+00 1.9743e+00 1.2966e+00 4.8885e-01 1.9178e-01 3.5690e-02
 9.0288e-03 2.5440e-03 1.9599e-03]
entropy correction =  -0.017287117611265713
cycle= 9 E= -12.9282803167557  delta_E= 0.134  |g|= 0.586  |ddm|= 2.07
HOMO:  -0.20781014397671052 LUMO:  -0.2003763341664604
Fermi energy:      -0.2061607028
[2.0000e+00 2.0000e+00 2.0000e+00 2.0000e+00 2.0000e+00 1.9996e+00
 1.9939e+00 1.9904e+00 1.1635e+00 4.7847e-01 2.2066e-01 9.5130e-02
 5.6363e-02 1.5604e-03 3.5224e-04]
entropy correction =  -0.019576323817090634
cycle= 10 E= -13.0765932088657  delta_E= -0.148  |g|= 0.385  |ddm|= 1.54
HOMO:  -0.22042975845914334 LUMO:  -0.2037654932441322
Fermi energy:      -0.2130495178
[2.0000e+00 2.0000e+00 2.0000e+00 2.0000e+00 2.0000e+00 1.9998e+00
 1.9972e+00 1.9864e+00 1.6279e+00 2.7015e-01 7.8146e-02 1.9843e-02
 1.7178e-02 2.5678e-03 8.7232e-04]
entropy correction =  -0.012127275630950608
cycle= 11 E= -13.1328024517227  delta_E= -0.0562  |g|= 0.253  |ddm|= 1.03
HOMO:  -0.2217472870095198 LUMO:  -0.21810913261470202
Fermi energy:      -0.2212725324
[2.0000e+00 2.0000e+00 2.0000e+00 2.0000e+00 2.0000e+00 1.9995e+00
 1.9937e+00 1.9468e+00 1.0474e+00 6.9381e-01 1.7026e-01 8.9986e-02
 5.5429e-02 2.3044e-03 7.5967e-04]
entropy correction =  -0.020974946604188038
cycle= 12 E= -13.1687426550259  delta_E= -0.0359  |g|= 0.104  |ddm|= 0.786
HOMO:  -0.2216620341828658 LUMO:  -0.2137720277539603
Fermi energy:      -0.2189488415
[2.0000e+00 2.0000e+00 2.0000e+00 2.0000e+00 2.0000e+00 1.9997e+00
[...]
 1.0225e-01 2.1294e-04]
entropy correction =  -0.03861724377784772
cycle= 6 E= -13.4014676901192  delta_E= -0.0495  |g|= 0.0489  |ddm|= 0.422
HOMO:  -0.3669159671755521 LUMO:  -0.3662548594482872
Fermi energy:      -0.3672163850
[2.0000e+00 1.9992e+00 1.9893e+00 1.9869e+00 1.9717e+00 1.9544e+00
 1.9483e+00 1.0678e+00 9.6997e-01 9.0414e-01 5.7360e-01 5.4005e-01
 9.4524e-02 2.2092e-04]
entropy correction =  -0.03825620921616039
cycle= 7 E= -13.3995043945297  delta_E= 0.00196  |g|= 0.0628  |ddm|= 0.267
HOMO:  -0.3685276205113731 LUMO:  -0.36619903882179405
Fermi energy:      -0.3679657598
[2.0000e+00 1.9990e+00 1.9896e+00 1.9883e+00 1.9606e+00 1.9604e+00
 1.9434e+00 1.0631e+00 1.0561e+00 8.2514e-01 5.6283e-01 5.5946e-01
 9.1742e-02 2.3365e-04]
entropy correction =  -0.03830445325424293
cycle= 8 E= -13.4032469715183  delta_E= -0.00374  |g|= 0.0214  |ddm|= 0.175
HOMO:  -0.36765341750025804 LUMO:  -0.365766281871532
Fermi energy:      -0.3673038406
[2.0000e+00 1.9989e+00 1.9888e+00 1.9869e+00 1.9614e+00 1.9609e+00
 1.9415e+00 1.0363e+00 1.0349e+00 8.4744e-01 5.7505e-01 5.7379e-01
 9.3841e-02 2.3317e-04]
entropy correction =  -0.03858766293886039
cycle= 9 E= -13.4029882040687  delta_E= 0.000259  |g|= 0.0305  |ddm|= 0.0609
HOMO:  -0.3666160559133138 LUMO:  -0.3652810502108814
Fermi energy:      -0.3665629672
[2.0000e+00 1.9988e+00 1.9876e+00 1.9853e+00 1.9619e+00 1.9616e+00
 1.9395e+00 1.0134e+00 1.0053e+00 8.7251e-01 5.8961e-01 5.8836e-01
 9.6027e-02 2.3307e-04]
entropy correction =  -0.03888508104629673
cycle= 10 E= -13.4036562664074  delta_E= -0.000668  |g|= 0.00306  |ddm|= 0.0557
HOMO:  -0.3663106543644973 LUMO:  -0.3651308730443197
Fermi energy:      -0.3663537481
[2.0000e+00 1.9988e+00 1.9870e+00 1.9856e+00 1.9622e+00 1.9621e+00
 1.9395e+00 1.0079e+00 9.9569e-01 8.7832e-01 5.9451e-01 5.9114e-01
 9.7170e-02 2.3265e-04]
entropy correction =  -0.03893569494749175
cycle= 11 E= -13.403647188945  delta_E= 9.08e-06  |g|= 0.00405  |ddm|= 0.0217
HOMO:  -0.36646742209094707 LUMO:  -0.3651442221513556
Fermi energy:      -0.3664173563
[2.0000e+00 1.9988e+00 1.9874e+00 1.9856e+00 1.9624e+00 1.9617e+00
 1.9400e+00 1.0073e+00 1.0050e+00 8.7337e-01 5.9178e-01 5.8980e-01
 9.6763e-02 2.3334e-04]
entropy correction =  -0.03889083486207281
cycle= 12 E= -13.4036583772679  delta_E= -1.12e-05  |g|= 0.00361  |ddm|= 0.0155
HOMO:  -0.3664916887818532 LUMO:  -0.3651508793308362
Fermi energy:      -0.3664285808
[2.0000e+00 1.9988e+00 1.9874e+00 1.9856e+00 1.9622e+00 1.9618e+00
 1.9400e+00 1.0067e+00 1.0063e+00 8.7292e-01 5.9121e-01 5.9008e-01
 9.6719e-02 2.3333e-04]
entropy correction =  -0.03888685812693054
cycle= 13 E= -13.403667477955  delta_E= -9.1e-06  |g|= 0.000569  |ddm|= 0.00692
HOMO:  -0.36646839868936004 LUMO:  -0.36514494502923966
Fermi energy:      -0.3664193015
[2.0000e+00 1.9988e+00 1.9874e+00 1.9855e+00 1.9621e+00 1.9620e+00
 1.9401e+00 1.0071e+00 1.0049e+00 8.7325e-01 5.9141e-01 5.9045e-01
 9.6749e-02 2.3326e-04]
entropy correction =  -0.0388896147083042
cycle= 14 E= -13.403665626383  delta_E= 1.85e-06  |g|= 0.00162  |ddm|= 0.00425
HOMO:  -0.3664666131495523 LUMO:  -0.36514765850726866
Fermi energy:      -0.3664209693
[2.0000e+00 1.9988e+00 1.9874e+00 1.9855e+00 1.9621e+00 1.9620e+00
 1.9400e+00 1.0073e+00 1.0046e+00 8.7335e-01 5.9143e-01 5.9049e-01
 9.6758e-02 2.3328e-04]
entropy correction =  -0.03889051915457969
cycle= 15 E= -13.4036607333306  delta_E= 4.89e-06  |g|= 0.00304  |ddm|= 0.00585
HOMO:  -0.36649534884729906 LUMO:  -0.36516149035646267
Fermi energy:      -0.3664361825
[2.0000e+00 1.9988e+00 1.9874e+00 1.9856e+00 1.9622e+00 1.9619e+00
 1.9400e+00 1.0067e+00 1.0059e+00 8.7322e-01 5.9091e-01 5.9046e-01
 9.6751e-02 2.3343e-04]
entropy correction =  -0.03888968715220866
cycle= 16 E= -13.4036676237555  delta_E= -6.89e-06  |g|= 0.000373  |ddm|= 0.00526
HOMO:  -0.3665052539869006 LUMO:  -0.36516779068677946
Fermi energy:      -0.3664441255
[2.0000e+00 1.9988e+00 1.9874e+00 1.9856e+00 1.9622e+00 1.9619e+00
 1.9400e+00 1.0070e+00 1.0061e+00 8.7306e-01 5.9094e-01 5.9013e-01
 9.6738e-02 2.3345e-04]
entropy correction =  -0.038887783608722665
cycle= 17 E= -13.403667755707  delta_E= -1.32e-07  |g|= 0.000148  |ddm|= 0.00115
HOMO:  -0.36650344590470735 LUMO:  -0.36516646021269583
Fermi energy:      -0.3664423195
[2.0000e+00 1.9988e+00 1.9874e+00 1.9855e+00 1.9622e+00 1.9619e+00
 1.9399e+00 1.0069e+00 1.0061e+00 8.7310e-01 5.9100e-01 5.9016e-01
 9.6739e-02 2.3349e-04]
entropy correction =  -0.03888906494605774
cycle= 18 E= -13.4036674950702  delta_E= 2.61e-07  |g|= 0.00062  |ddm|= 0.0011
HOMO:  -0.3664980717413259 LUMO:  -0.3651622916580023
Fermi energy:      -0.3664378852
[2.0000e+00 1.9988e+00 1.9874e+00 1.9855e+00 1.9622e+00 1.9619e+00
 1.9400e+00 1.0068e+00 1.0060e+00 8.7313e-01 5.9106e-01 5.9028e-01
 9.6739e-02 2.3346e-04]
entropy correction =  -0.03888939801566798
cycle= 19 E= -13.4036677701886  delta_E= -2.75e-07  |g|= 6.23e-05  |ddm|= 0.000969
HOMO:  -0.36649877899736294 LUMO:  -0.3651625677988029
Fermi energy:      -0.3664385917
[2.0000e+00 1.9988e+00 1.9874e+00 1.9856e+00 1.9622e+00 1.9619e+00
 1.9400e+00 1.0068e+00 1.0060e+00 8.7309e-01 5.9105e-01 5.9025e-01
 9.6735e-02 2.3344e-04]
entropy correction =  -0.03888869264213764
cycle= 20 E= -13.4036677736728  delta_E= -3.48e-09  |g|= 1.96e-05  |ddm|= 0.000206
HOMO:  -0.3664998819172903 LUMO:  -0.3651627724301116
Fermi energy:      -0.3664390379
[2.0000e+00 1.9988e+00 1.9874e+00 1.9856e+00 1.9622e+00 1.9619e+00
 1.9400e+00 1.0068e+00 1.0061e+00 8.7306e-01 5.9103e-01 5.9024e-01
 9.6734e-02 2.3343e-04]
entropy correction =  -0.03888832213405751
cycle= 21 E= -13.4036677684634  delta_E= 5.21e-09  |g|= 8.9e-05  |ddm|= 0.000209
HOMO:  -0.3664996649116304 LUMO:  -0.36516273984383635
Fermi energy:      -0.3664390289
[2.0000e+00 1.9988e+00 1.9874e+00 1.9856e+00 1.9622e+00 1.9619e+00
 1.9400e+00 1.0068e+00 1.0061e+00 8.7306e-01 5.9102e-01 5.9025e-01
 9.6734e-02 2.3343e-04]
entropy correction =  -0.03888829002965285
cycle= 22 E= -13.4036677721806  delta_E= -3.72e-09  |g|= 4.9e-05  |ddm|= 0.000232
HOMO:  -0.3664986502308904 LUMO:  -0.36516232424567896
Fermi energy:      -0.3664383789
[2.0000e+00 1.9988e+00 1.9874e+00 1.9856e+00 1.9622e+00 1.9619e+00
 1.9400e+00 1.0068e+00 1.0060e+00 8.7308e-01 5.9104e-01 5.9026e-01
 9.6736e-02 2.3344e-04]
entropy correction =  -0.03888866040781206
cycle= 23 E= -13.4036677740355  delta_E= -1.85e-09  |g|= 1.29e-05  |ddm|= 0.000116
HOMO:  -0.3664987279781364 LUMO:  -0.36516234734902137
Fermi energy:      -0.3664384003
[2.0000e+00 1.9988e+00 1.9874e+00 1.9856e+00 1.9622e+00 1.9619e+00
 1.9400e+00 1.0068e+00 1.0060e+00 8.7308e-01 5.9104e-01 5.9026e-01
 9.6736e-02 2.3344e-04]
entropy correction =  -0.038888663593103466
cycle= 24 E= -13.4036677741336  delta_E= -9.81e-11  |g|= 8.08e-06  |ddm|= 2.98e-05
HOMO:  -0.36649930130338076 LUMO:  -0.3651626464412624
Fermi energy:      -0.3664387557
[2.0000e+00 1.9988e+00 1.9874e+00 1.9856e+00 1.9622e+00 1.9619e+00
 1.9400e+00 1.0068e+00 1.0061e+00 8.7308e-01 5.9103e-01 5.9025e-01
 9.6736e-02 2.3344e-04]
entropy correction =  -0.038888580980545984
Extra cycle  E= -13.4036677670256  delta_E= 7.11e-09  |g|= 0.000101  |ddm|= 0.000158
entropy correction =  -0.038888580980545984
rks_ao.ne_frozen =  0
Set gradient conv threshold to 3.16228e-05
tot grids = 190200
init E= -9.12169490073837
HOMO:  -0.18203744429664726 LUMO:  -0.1711575567202281
Fermi energy:      -0.1750221866
[2.0000e+00 2.0000e+00 2.0000e+00 2.0000e+00 1.9147e+00 1.8508e+00
 1.8499e+00 1.6062e+00 1.6053e+00 6.3169e-01 4.0259e-01 5.8215e-02
 5.6845e-02 1.1582e-02 1.1391e-02 8.3125e-04]
entropy correction =  -0.03162199836985892
cycle= 1 E= -12.4375882371628  delta_E= -3.32  |g|= 0.773  |ddm|= 5.23
HOMO:  -0.13313258573984377 LUMO:  -0.12997866239235703
Fermi energy:      -0.1291121718
[2.0000e+00 2.0000e+00 2.0000e+00 2.0000e+00 2.0000e+00 2.0000e+00
 1.9817e+00 1.3941e+00 1.3817e+00 1.0864e+00 4.8318e-02 4.5808e-02
 3.6260e-02 1.2500e-02 1.0788e-02 1.0415e-03 5.7741e-04 5.0884e-04
 2.9286e-04]
entropy correction =  -0.023693035677848237
cycle= 2 E= -12.3597151232816  delta_E= 0.0779  |g|= 0.987  |ddm|=  2.9
HOMO:  -0.21794578959228425 LUMO:  -0.20957779073245927
Fermi energy:      -0.2147406499
[2.0000e+00 2.0000e+00 2.0000e+00 2.0000e+00 1.9883e+00 1.9880e+00
 1.9670e+00 1.3120e+00 1.3100e+00 5.2517e-01 3.8959e-01 3.8648e-01
 1.0127e-01 1.5695e-02 1.5519e-02 1.0494e-03]
entropy correction =  -0.033005851849985786
cycle= 3 E= -12.7484771495569  delta_E= -0.389  |g|= 0.228  |ddm|= 1.38
HOMO:  -0.21849409998658506 LUMO:  -0.21368715123852
Fermi energy:      -0.2162397939
[2.0000e+00 2.0000e+00 2.0000e+00 2.0000e+00 1.9290e+00 1.8248e+00
 1.8165e+00 1.2244e+00 1.2217e+00 7.5014e-01 7.4792e-01 3.5677e-01
 9.7019e-02 1.5664e-02 1.5277e-02 8.2894e-04]
entropy correction =  -0.04172959267739187
cycle= 4 E= -12.774331991035  delta_E= -0.0259  |g|= 0.0634  |ddm|= 0.534
HOMO:  -0.21874214322312746 LUMO:  -0.21397047848894893
Fermi energy:      -0.2163325598
[2.0000e+00 2.0000e+00 2.0000e+00 2.0000e+00 1.9364e+00 1.8043e+00
 1.7953e+00 1.2427e+00 1.2364e+00 7.6809e-01 7.1207e-01 3.8353e-01
 9.2799e-02 1.4268e-02 1.3272e-02 7.8151e-04]
entropy correction =  -0.041991609512971526
cycle= 5 E= -12.7554665027103  delta_E= 0.0189  |g|= 0.171  |ddm|= 0.344
HOMO:  -0.21836652029982473 LUMO:  -0.2135823817933396
Fermi energy:      -0.2160998347
[2.0000e+00 2.0000e+00 2.0000e+00 2.0000e+00 1.9333e+00 1.8097e+00
 1.8065e+00 1.2254e+00 1.2229e+00 7.5344e-01 7.4459e-01 3.8258e-01
 9.0147e-02 1.5651e-02 1.5097e-02 7.6550e-04]
entropy correction =  -0.042020124003527524
cycle= 6 E= -12.7776519297477  delta_E= -0.0222  |g|= 0.0118  |ddm|= 0.266
HOMO:  -0.2181595159918795 LUMO:  -0.21321581825892783
Fermi energy:      -0.2157920655
[2.0000e+00 2.0000e+00 2.0000e+00 2.0000e+00 1.9310e+00 1.8056e+00
 1.8052e+00 1.2373e+00 1.2324e+00 7.4793e-01 7.4305e-01 3.7532e-01
 8.9871e-02 1.5912e-02 1.5629e-02 8.1053e-04]
entropy correction =  -0.04201502992374218
cycle= 7 E= -12.7778575669115  delta_E= -0.000206  |g|= 0.00623  |ddm|= 0.0497
HOMO:  -0.2182921606049951 LUMO:  -0.213336652413601
Fermi energy:      -0.2159049377
[2.0000e+00 2.0000e+00 2.0000e+00 2.0000e+00 1.9310e+00 1.8064e+00
 1.8028e+00 1.2348e+00 1.2343e+00 7.4867e-01 7.4604e-01 3.7400e-01
 8.9693e-02 1.5879e-02 1.5594e-02 8.0654e-04]
entropy correction =  -0.04202940089472989
cycle= 8 E= -12.7778463304107  delta_E= 1.12e-05  |g|= 0.00777  |ddm|= 0.0269
HOMO:  -0.2184066315548056 LUMO:  -0.2135087212813533
Fermi energy:      -0.2160317522
[2.0000e+00 2.0000e+00 2.0000e+00 2.0000e+00 1.9311e+00 1.8051e+00
 1.8023e+00 1.2341e+00 1.2331e+00 7.5292e-01 7.4694e-01 3.7273e-01
 8.9489e-02 1.5882e-02 1.5494e-02 8.0086e-04]
entropy correction =  -0.04204962039958692
cycle= 9 E= -12.7778806011714  delta_E= -3.43e-05  |g|= 0.00336  |ddm|= 0.0191
HOMO:  -0.21843885258027512 LUMO:  -0.2135349789135541
Fermi energy:      -0.2160651649
[2.0000e+00 2.0000e+00 2.0000e+00 2.0000e+00 1.9312e+00 1.8040e+00
 1.8020e+00 1.2339e+00 1.2330e+00 7.5225e-01 7.4971e-01 3.7239e-01
 8.9405e-02 1.5817e-02 1.5534e-02 7.9894e-04]
entropy correction =  -0.04206658704803334
cycle= 10 E= -12.777883931704  delta_E= -3.33e-06  |g|= 0.00296  |ddm|= 0.00851
HOMO:  -0.21843081629729433 LUMO:  -0.21352243601811705
Fermi energy:      -0.2160629283
[2.0000e+00 2.0000e+00 2.0000e+00 2.0000e+00 1.9312e+00 1.8038e+00
 1.8022e+00 1.2342e+00 1.2325e+00 7.5128e-01 7.5110e-01 3.7230e-01
 8.9395e-02 1.5784e-02 1.5554e-02 7.9855e-04]
entropy correction =  -0.042067170225004155
cycle= 11 E= -12.7778903367761  delta_E= -6.41e-06  |g|= 0.000625  |ddm|= 0.00556
HOMO:  -0.2184017193440009 LUMO:  -0.21348638370587036
Fermi energy:      -0.2160302878
[2.0000e+00 2.0000e+00 2.0000e+00 2.0000e+00 1.9312e+00 1.8046e+00
 1.8022e+00 1.2340e+00 1.2328e+00 7.5096e-01 7.5015e-01 3.7248e-01
 8.9373e-02 1.5790e-02 1.5554e-02 7.9929e-04]
entropy correction =  -0.04205450887418496
cycle= 12 E= -12.7778904314827  delta_E= -9.47e-08  |g|= 0.000535  |ddm|= 0.0022
HOMO:  -0.2183990869738199 LUMO:  -0.21348391315877022
Fermi energy:      -0.2160280498
[2.0000e+00 2.0000e+00 2.0000e+00 2.0000e+00 1.9312e+00 1.8043e+00
 1.8026e+00 1.2341e+00 1.2328e+00 7.5094e-01 7.5013e-01 3.7250e-01
 8.9374e-02 1.5797e-02 1.5549e-02 7.9937e-04]
entropy correction =  -0.0420546448781124
cycle= 13 E= -12.7778906510646  delta_E= -2.2e-07  |g|= 0.000123  |ddm|= 0.00145
HOMO:  -0.21839984159010847 LUMO:  -0.2134841031162429
Fermi energy:      -0.2160284672
[2.0000e+00 2.0000e+00 2.0000e+00 2.0000e+00 1.9312e+00 1.8043e+00
 1.8025e+00 1.2341e+00 1.2328e+00 7.5092e-01 7.5022e-01 3.7248e-01
 8.9362e-02 1.5796e-02 1.5550e-02 7.9927e-04]
entropy correction =  -0.0420554031476582
cycle= 14 E= -12.777890662907  delta_E= -1.18e-08  |g|= 2.83e-05  |ddm|= 0.00033
HOMO:  -0.2184006097845595 LUMO:  -0.21348514650679024
Fermi energy:      -0.2160291851
[2.0000e+00 2.0000e+00 2.0000e+00 2.0000e+00 1.9312e+00 1.8043e+00
 1.8025e+00 1.2341e+00 1.2328e+00 7.5095e-01 7.5022e-01 3.7248e-01
 8.9361e-02 1.5796e-02 1.5550e-02 7.9924e-04]
entropy correction =  -0.04205565056769357
cycle= 15 E= -12.7778906641229  delta_E= -1.22e-09  |g|= 7.49e-06  |ddm|= 0.000125
HOMO:  -0.2184013682026863 LUMO:  -0.21348584192253448
Fermi energy:      -0.2160300010
[2.0000e+00 2.0000e+00 2.0000e+00 2.0000e+00 1.9312e+00 1.8043e+00
 1.8025e+00 1.2341e+00 1.2328e+00 7.5093e-01 7.5025e-01 3.7247e-01
 8.9361e-02 1.5797e-02 1.5549e-02 7.9921e-04]
entropy correction =  -0.04205567522943069
cycle= 16 E= -12.7778906627374  delta_E= 1.39e-09  |g|= 4.21e-05  |ddm|= 0.000103
HOMO:  -0.21840114860490537 LUMO:  -0.2134857737149382
Fermi energy:      -0.2160298095
[2.0000e+00 2.0000e+00 2.0000e+00 2.0000e+00 1.9312e+00 1.8043e+00
 1.8025e+00 1.2341e+00 1.2328e+00 7.5095e-01 7.5023e-01 3.7247e-01
 8.9361e-02 1.5796e-02 1.5550e-02 7.9922e-04]
entropy correction =  -0.04205559432363891
cycle= 17 E= -12.7778906641482  delta_E= -1.41e-09  |g|= 5.65e-06  |ddm|= 8.45e-05
HOMO:  -0.21840107169713105 LUMO:  -0.21348570396177455
Fermi energy:      -0.2160297303
[2.0000e+00 2.0000e+00 2.0000e+00 2.0000e+00 1.9312e+00 1.8043e+00
 1.8025e+00 1.2341e+00 1.2328e+00 7.5095e-01 7.5023e-01 3.7247e-01
 8.9361e-02 1.5796e-02 1.5550e-02 7.9923e-04]
entropy correction =  -0.042055585468667944
cycle= 18 E= -12.7778906641633  delta_E= -1.52e-11  |g|= 3.7e-06  |ddm|= 1.68e-05
HOMO:  -0.21840103342610573 LUMO:  -0.21348553413840865
Fermi energy:      -0.2160296357
[2.0000e+00 2.0000e+00 2.0000e+00 2.0000e+00 1.9312e+00 1.8043e+00
 1.8025e+00 1.2341e+00 1.2328e+00 7.5094e-01 7.5024e-01 3.7247e-01
 8.9361e-02 1.5796e-02 1.5550e-02 7.9923e-04]
entropy correction =  -0.04205563889487362
Extra cycle  E= -12.7778906636237  delta_E= 5.4e-10  |g|= 2.65e-05  |ddm|= 5.62e-05
entropy correction =  -0.04205563889487362
scf energies:
EA (no vemb contrib.) =  -34.78924625613953
EB (no vemb contrib.) =  -24.950131261291556
W =  -59.63621018613152
P_imp change (scf - non-scf):  0.0004805105989954658
P_bath change (scf - non-scf):  0.00018986268662942455
|P_frag + P_env - P_ref| =  0.0680033070678456
max element of (P_frag + P_env - P_ref) =  0.0033736432513926523
mo orthogonality:
[[-4.4775e-06  3.2820e-06 -1.4540e-05  1.5234e-02 -1.2448e-06 -4.7970e-05
  -3.0644e-05 -4.6256e-06  1.0856e-05  7.5864e-05 -4.2384e-07 -4.5500e-05
   3.2496e-01  1.3544e-04 -1.2915e-04  4.5588e-01 -8.6372e-05  8.7179e-04
   1.6353e-04]
 [ 1.6643e-05 -1.7428e-05  8.2775e-03  9.7509e-06  3.3156e-06 -4.2687e-06
  -1.2497e-06  2.5872e-04 -2.2506e-04 -7.2548e-06  6.4789e-06 -2.4821e-01
   1.1751e-04  1.0048e-04  1.9378e-05 -1.2995e-04 -1.2243e-03 -8.7739e-03
  -9.7678e-03]
 [ 3.1971e-04  1.0403e-03  6.7581e-05  4.1011e-05  2.4022e-05  1.6601e-05
   1.6444e-05  6.5620e-03  1.9653e-02 -6.7536e-05 -3.4423e-06 -2.2752e-03
   7.3162e-05 -1.7767e-04  3.3067e-05 -6.1010e-04  1.6040e-02  6.8598e-01
  -1.1456e-01]
 [ 6.2121e-04 -2.6325e-04 -4.2846e-05 -4.8072e-06  7.9447e-06 -3.9655e-06
  -2.3824e-05  2.0225e-02 -6.1679e-03  4.6469e-05 -1.2812e-06  1.9469e-03
  -1.6607e-05 -2.9221e-04 -1.1818e-04  3.8773e-04 -1.4699e-02 -9.6532e-02
  -7.9580e-01]
 [-5.8327e-06 -6.3847e-07  7.6512e-06 -4.0529e-05 -7.4678e-06  2.0751e-02
  -6.7587e-03  2.2378e-05  1.2417e-05  5.7965e-02 -4.2823e-02 -1.6627e-04
  -2.3779e-04 -3.4055e-01  8.6500e-01  3.1223e-04 -3.5072e-04 -5.5598e-04
  -1.0553e-03]
 [-4.7120e-06 -4.6967e-06  8.3073e-06 -2.3588e-05  1.4096e-05  6.8530e-03
   2.0764e-02 -1.0709e-05 -7.8406e-05  4.2973e-02  5.7755e-02  1.0194e-04
   1.8726e-04  8.6522e-01  3.3989e-01 -5.1466e-04 -1.5826e-03 -3.4193e-04
  -2.0225e-04]
 [-5.4332e-06 -2.5850e-06 -1.0908e-05 -6.2525e-03  2.5309e-06  4.1788e-05
   1.1504e-04  1.8008e-05 -1.9404e-05 -3.2647e-05  4.9107e-05 -1.4521e-05
  -7.6054e-01  5.3770e-04 -1.2821e-04  5.3211e-01 -3.1342e-04  4.5697e-04
   2.0091e-04]
 [-1.8562e-05  3.2672e-07 -2.8203e-06  1.5569e-04 -6.4271e-05 -1.9698e-01
   2.2017e-02 -8.4052e-06  7.5932e-05  8.7634e-01 -4.0496e-01 -1.5639e-04
  -8.0033e-05  1.1928e-02 -7.1428e-02  2.1593e-05 -4.2407e-04  1.5584e-04
   5.7080e-05]
 [-2.0407e-05  2.6692e-06 -3.5604e-05 -1.0519e-05  8.0961e-05  2.2095e-02
   1.9621e-01 -5.3372e-05 -1.1500e-05 -4.0496e-01 -8.7655e-01 -3.2540e-04
  -1.7087e-05  7.1154e-02  1.2457e-02 -1.1255e-04  3.4985e-05 -2.2771e-04
   8.6033e-05]
 [-5.4507e-05  1.0371e-04  5.7842e-02 -6.6381e-05  1.4866e-06 -3.1093e-05
   8.4837e-05  3.1782e-05  3.5030e-04  9.0747e-06 -3.9113e-04  9.3725e-01
  -2.5236e-05 -1.0260e-04  1.2770e-04 -7.2278e-05 -2.1531e-04 -3.6068e-04
  -1.1474e-03]
 [-2.0029e-03 -3.1851e-02  4.6712e-05  3.0277e-05 -3.9676e-05  1.0592e-04
  -3.0700e-06  3.5383e-02  9.7261e-01 -5.1132e-05  2.0976e-05 -3.1585e-04
  -2.4791e-05  9.3634e-05  4.0516e-05  3.9264e-05 -4.4311e-04 -1.6945e-03
  -1.5207e-03]
 [-3.0589e-02  2.1975e-03 -4.5289e-05  5.4706e-05  8.2674e-05  1.0563e-05
   3.0643e-06  9.7223e-01 -3.5511e-02 -1.6077e-05 -5.1119e-05  3.2227e-05
   3.7209e-05  3.7787e-05 -9.4275e-05 -1.3926e-05  9.5202e-04 -2.5132e-04
   1.5188e-02]
 [ 1.1250e-04 -2.8172e-04  6.4835e-04 -7.7244e-01 -1.3468e-04 -1.6843e-04
   1.5540e-04  6.8160e-05 -1.4284e-05  9.6174e-05  6.6419e-05 -1.7103e-04
  -2.8253e-01 -2.2841e-04 -2.0136e-04 -3.2219e-01  2.1262e-04 -1.0949e-04
  -1.2358e-05]
 [ 2.2979e-03 -4.1881e-04  1.6026e-05  1.7746e-04 -9.5822e-01  1.3186e-04
   3.8277e-04  3.4930e-04 -1.1463e-04 -4.4231e-05  1.2729e-05 -8.4609e-07
  -2.1801e-05 -5.5831e-05 -1.4881e-04 -1.7676e-05 -1.6725e-04 -2.7792e-04
   5.8421e-05]]
|P_imp-P_imp_0| =  0.0004805105989954658
max(P_imp-P_imp_0) =  4.5517438928111e-05
|P_bath-P_bath_0| =  0.00018986268662942455
max(P_bath-P_bath_0) =  1.448466938158699e-05
RUNNING THE L-BFGS-B CODE

           * * *

Machine precision = 2.220D-16
 N =         4656     M =           10

At X0         0 variables are exactly at the bounds

At iterate    0    f=   1.175187467011E-03    |proj g|=  1.571467105E-03

At iterate    1    f=   1.175135503270E-03    |proj g|=  6.508169151E-04

At iterate    2    f=   1.175133496184E-03    |proj g|=  6.392546407E-04

At iterate    3    f=   1.175133367855E-03    |proj g|=  6.346387731E-04

At iterate    4    f=   1.175133367856E-03    |proj g|=  6.346387632E-04

           * * *

Tit   = total number of iterations
Tnf   = total number of function evaluations
Tnint = total number of segments explored during Cauchy searches
Skip  = number of BFGS updates skipped
Nact  = number of active bounds at final generalized Cauchy point
Projg = norm of the final projected gradient
F     = final function value

           * * *

   N    Tit     Tnf  Tnint  Skip  Nact     Projg        F
 4656      4     37      1     0     0   6.346D-04   1.175D-03
  F =   1.1751333678556644E-003

CONVERGENCE: REL_REDUCTION_OF_F_<=_FACTR*EPSMCH             

 Cauchy                time 0.000E+00 seconds.
 Subspace minimization time 0.000E+00 seconds.
 Line search           time 0.000E+00 seconds.

 Total User time 0.000E+00 seconds.

