#INFO: **** input file is /tigress/xingz/pydmfet/examples/research/Al12/dmfet/least/Al12.py ****
from pydmfet import locints, sdmfet, oep, tools, dfet_ao, proj_ao
from pydmfet.dfet_ao import dfet
from pydmfet.qcwrap.pyscf_rks_ao import rks_ao
from pyscf import gto, scf,dft, ao2mo,cc
import numpy as np
from pyscf.tools import molden, cubegen
import copy,time
from pydmfet.tools.sym import h_lattice_sym_tab

bas = 'stuttgartdz'
ecp = 'stuttgartdz'
temp = 0.005


mol = gto.Mole()
mol.atom = open('Al12.xyz').read()
mol.basis = bas
mol.ecp = ecp
mol.build(max_memory = 4000, verbose=4)

mf = rks_ao(mol,smear_sigma = temp)
mf.xc = 'pbe,pbe'
mf.max_cycle = 50
mf.scf(dm0=None)

natoms = mol.natm
impAtom = np.zeros([natoms], dtype=int)
for i in range(6):
    impAtom[i] = 1

ghost_frag = 1-impAtom
ghost_env = 1-ghost_frag

mol_frag = gto.Mole()
mol_frag.atom = tools.add_ghost(mol.atom, ghost_frag)
mol_frag.basis = bas
mol_frag.ecp = ecp
mol_frag.build(max_memory = 4000,verbose = 4)

mol_env = gto.Mole()
mol_env.atom = tools.add_ghost(mol.atom, ghost_env)
mol_env.basis =  bas
mol_env.ecp = ecp
mol_env.build(max_memory = 4000,verbose = 4)

Ne_frag = 18
Ne_env = 18

boundary_atoms = None
boundary_atoms2 =None

umat = None
umat = np.load("umat.npy")

params = oep.OEPparams(algorithm = 'leastsq', opt_method = 'L-BFGS-B', diffP_tol=1e-3, outer_maxit = 20)
params.options['ftol'] = 1e-12
params.options['gtol'] = 1e-4
params.options['maxiter'] = 100
params.options['svd_thresh'] = 1e-5

theDMFET = dfet.DFET(mf, mol_frag, mol_env,Ne_frag,Ne_env,\
                     boundary_atoms=boundary_atoms, boundary_atoms2=boundary_atoms2,umat = umat,\
                     oep_params=params, smear_sigma=temp, ecw_method = 'hf',mf_method = mf.xc, plot_dens=True)

umat = theDMFET.embedding_potential()
#INFO: ******************** input file end ********************


System: uname_result(system='Linux', node='tiger-h25c2n22', release='3.10.0-957.27.2.el7.x86_64', version='#1 SMP Tue Jul 30 11:12:20 EDT 2019', machine='x86_64', processor='x86_64')  Threads 40
Python 3.7.0 (default, Jun 28 2018, 13:15:42) 
[GCC 7.2.0]
numpy 1.16.4  scipy 1.4.0.dev0+0f78e0f
Date: Mon Aug 26 23:34:36 2019
PySCF version 1.5
PySCF path  /home/xingz/.local/lib/python3.7/site-packages/pyscf

[CONFIG] conf_file None
[INPUT] verbose = 4
[INPUT] num. atoms = 12
[INPUT] num. electrons = 36
[INPUT] charge = 0
[INPUT] spin (= nelec alpha-beta = 2S) = 0
[INPUT] symmetry False subgroup None
[INPUT] Mole.unit = angstrom
[INPUT]  1 Al     8.092960000000   4.046480000000  -0.000000000000 AA   15.293477937060   7.646738968530  -0.000000000000 Bohr
[INPUT]  2 Al     8.092960000000   6.069720000000  -2.023240000000 AA   15.293477937060  11.470108452795  -3.823369484265 Bohr
[INPUT]  3 Al    10.116200000000   4.046480000000  -2.023240000000 AA   19.116847421325   7.646738968530  -3.823369484265 Bohr
[INPUT]  4 Al     6.069720000000   4.046480000000  -2.023240000000 AA   11.470108452795   7.646738968530  -3.823369484265 Bohr
[INPUT]  5 Al     8.092960000000   2.023240000000  -2.023240000000 AA   15.293477937060   3.823369484265  -3.823369484265 Bohr
[INPUT]  6 Al     8.092960000000   4.046480000000  -4.046480000000 AA   15.293477937060   7.646738968530  -7.646738968530 Bohr
[INPUT]  7 Al     6.069720000000   6.069720000000  -0.000000000000 AA   11.470108452795  11.470108452795  -0.000000000000 Bohr
[INPUT]  8 Al    10.116200000000   2.023240000000  -0.000000000000 AA   19.116847421325   3.823369484265  -0.000000000000 Bohr
[INPUT]  9 Al    10.116200000000   6.069720000000  -4.046480000000 AA   19.116847421325  11.470108452795  -7.646738968530 Bohr
[INPUT] 10 Al     6.069720000000   2.023240000000  -0.000000000000 AA   11.470108452795   3.823369484265  -0.000000000000 Bohr
[INPUT] 11 Al     6.069720000000   6.069720000000  -4.046480000000 AA   11.470108452795  11.470108452795  -7.646738968530 Bohr
[INPUT] 12 Al    10.116200000000   2.023240000000  -4.046480000000 AA   19.116847421325   3.823369484265  -7.646738968530 Bohr

nuclear repulsion = 84.8573926838199
number of shells = 48
number of NR pGTOs = 192
number of NR cGTOs = 96
basis = stuttgartdz
ecp = stuttgartdz
CPU time:         4.70
rks_ao.ne_frozen =  0


******** <class 'pydmfet.qcwrap.pyscf_rks_ao.rks_ao'> flags ********
method = rks_ao-RKS-RHF
initial guess = minao
damping factor = 0
level shift factor = 0
DIIS = <class 'pyscf.scf.diis.CDIIS'>
DIIS start cycle = 1
DIIS space = 8
SCF tol = 1e-09
SCF gradient tol = None
max. SCF cycles = 50
direct_scf = False
chkfile to save SCF result = /tmp/tmpzmot7of5
max_memory 4000 MB (current use 69 MB)
XC functionals = pbe,pbe
small_rho_cutoff = 1e-07
radial grids: 
    Treutler-Ahlrichs (JCP 102, 346 (M4)) radial grids
    
becke partition: Becke, JCP, 88, 2547 (1988)
pruning grids: <function nwchem_prune at 0x2ba0026f0400>
grids dens level: 3
symmetrized grids: False
atomic radii adjust function: <function treutler_atomic_radii_adjust at 0x2ba0026f0378>
Set gradient conv threshold to 3.16228e-05
tot grids = 220800
init E= -21.344783658299
HOMO:  -0.09640875247665495 LUMO:  -0.08910626015727982
Fermi energy:      -0.0887572500
[2.     2.     2.     2.     2.     2.     2.     2.     2.     2.
 2.     2.     1.9995 1.9096 1.7557 1.7557 1.6441 1.6441 1.0349 0.2163
 0.02   0.02  ]
entropy correction =  -0.030126401120555247
cycle= 1 E= -24.0317931623439  delta_E= -2.69  |g|= 0.653  |ddm|= 6.67
HOMO:  -0.23116268121406977 LUMO:  -0.2311626812140681
Fermi energy:      -0.2358858179
[2.     2.     2.     2.     2.     2.     2.     2.     2.     2.
 2.     2.     2.     1.9989 1.9981 1.9981 1.9963 0.5599 0.5599 0.4393
 0.4393 0.0101]
entropy correction =  -0.023039333382987765
cycle= 2 E= -22.7589412389296  delta_E= 1.27  |g|= 1.61  |ddm|= 4.31
HOMO:  -0.18647942894363484 LUMO:  -0.17551521715009122
Fermi energy:      -0.1766937420
[2.     2.     2.     2.     2.     2.     2.     2.     2.     2.
 2.     2.     1.9995 1.9702 1.7766 1.7766 1.7524 1.7524 0.8827 0.0807
 0.0044 0.0044]
entropy correction =  -0.024152976140203505
cycle= 3 E= -24.1577819139597  delta_E= -1.4  |g|= 0.177  |ddm|= 3.48
HOMO:  -0.16723309364643274 LUMO:  -0.166682195842871
Fermi energy:      -0.1626445453
[2.     2.     2.     2.     2.     2.     2.     2.     2.     2.
 2.     2.     1.9999 1.922  1.8341 1.8341 1.4292 1.4292 1.3832 0.1196
 0.0244 0.0244]
entropy correction =  -0.02909238898208645
cycle= 4 E= -24.1758252803635  delta_E= -0.018  |g|= 0.0887  |ddm|= 0.83
HOMO:  -0.16913270192186158 LUMO:  -0.16476599946426054
Fermi energy:      -0.1627185946
[2.     2.     2.     2.     2.     2.     2.     2.     2.     2.
 2.     2.     1.9998 1.9364 1.7964 1.7964 1.5659 1.5659 1.2019 0.1144
 0.0115 0.0115]
entropy correction =  -0.028086976616489023
cycle= 5 E= -24.1831548018881  delta_E= -0.00733  |g|= 0.00917  |ddm|= 0.293
HOMO:  -0.17049749264549466 LUMO:  -0.16611814497689242
Fermi energy:      -0.1641279001
[2.     2.     2.     2.     2.     2.     2.     2.     2.     2.
 2.     2.     1.9999 1.9389 1.802  1.802  1.5628 1.5628 1.1964 0.1103
 0.0124 0.0124]
entropy correction =  -0.027959631237354732
cycle= 6 E= -24.1832343076199  delta_E= -7.95e-05  |g|= 0.00113  |ddm|= 0.0422
HOMO:  -0.17058528293728265 LUMO:  -0.16630331880957752
Fermi energy:      -0.1642599608
[2.     2.     2.     2.     2.     2.     2.     2.     2.     2.
 2.     2.     1.9999 1.9387 1.8025 1.8025 1.5598 1.5598 1.2015 0.1105
 0.0124 0.0124]
entropy correction =  -0.027983238069823026
cycle= 7 E= -24.1832355424437  delta_E= -1.23e-06  |g|= 0.000895  |ddm|= 0.00747
HOMO:  -0.1705473183302023 LUMO:  -0.16621690815491383
Fermi energy:      -0.1641961314
[2.     2.     2.     2.     2.     2.     2.     2.     2.     2.
 2.     2.     1.9999 1.9385 1.8018 1.8018 1.5616 1.5616 1.1994 0.1109
 0.0124 0.0124]
entropy correction =  -0.027989016591825653
cycle= 8 E= -24.1832361917861  delta_E= -6.49e-07  |g|= 7.71e-05  |ddm|= 0.00356
HOMO:  -0.17053508515525923 LUMO:  -0.1662114728203214
Fermi energy:      -0.1641878969
[2.     2.     2.     2.     2.     2.     2.     2.     2.     2.
 2.     2.     1.9999 1.9385 1.8019 1.8019 1.5613 1.5613 1.1996 0.1108
 0.0124 0.0124]
entropy correction =  -0.027988384491849833
cycle= 9 E= -24.1832362012567  delta_E= -9.47e-09  |g|= 2.11e-05  |ddm|= 0.000544
HOMO:  -0.17053203701317532 LUMO:  -0.16620777273045123
Fermi energy:      -0.1641845192
[2.     2.     2.     2.     2.     2.     2.     2.     2.     2.
 2.     2.     1.9999 1.9385 1.8019 1.8019 1.5613 1.5613 1.1996 0.1108
 0.0124 0.0124]
entropy correction =  -0.02798810871278125
cycle= 10 E= -24.1832362015516  delta_E= -2.95e-10  |g|= 3.03e-06  |ddm|= 6.6e-05
HOMO:  -0.1705331170983702 LUMO:  -0.16620885001250113
Fermi energy:      -0.1641855888
[2.     2.     2.     2.     2.     2.     2.     2.     2.     2.
 2.     2.     1.9999 1.9385 1.8019 1.8019 1.5613 1.5613 1.1996 0.1108
 0.0124 0.0124]
entropy correction =  -0.02798811884046274
Extra cycle  E= -24.1832362015501  delta_E= 1.48e-12  |g|= 3.71e-06  |ddm|= 1.75e-05
converged SCF energy = -24.1832362015501
#INFO: **** input file is /tigress/xingz/pydmfet/examples/research/Al12/dmfet/least/Al12.py ****
from pydmfet import locints, sdmfet, oep, tools, dfet_ao, proj_ao
from pydmfet.dfet_ao import dfet
from pydmfet.qcwrap.pyscf_rks_ao import rks_ao
from pyscf import gto, scf,dft, ao2mo,cc
import numpy as np
from pyscf.tools import molden, cubegen
import copy,time
from pydmfet.tools.sym import h_lattice_sym_tab

bas = 'stuttgartdz'
ecp = 'stuttgartdz'
temp = 0.005


mol = gto.Mole()
mol.atom = open('Al12.xyz').read()
mol.basis = bas
mol.ecp = ecp
mol.build(max_memory = 4000, verbose=4)

mf = rks_ao(mol,smear_sigma = temp)
mf.xc = 'pbe,pbe'
mf.max_cycle = 50
mf.scf(dm0=None)

natoms = mol.natm
impAtom = np.zeros([natoms], dtype=int)
for i in range(6):
    impAtom[i] = 1

ghost_frag = 1-impAtom
ghost_env = 1-ghost_frag

mol_frag = gto.Mole()
mol_frag.atom = tools.add_ghost(mol.atom, ghost_frag)
mol_frag.basis = bas
mol_frag.ecp = ecp
mol_frag.build(max_memory = 4000,verbose = 4)

mol_env = gto.Mole()
mol_env.atom = tools.add_ghost(mol.atom, ghost_env)
mol_env.basis =  bas
mol_env.ecp = ecp
mol_env.build(max_memory = 4000,verbose = 4)

Ne_frag = 18
Ne_env = 18

boundary_atoms = None
boundary_atoms2 =None

umat = None
umat = np.load("umat.npy")

params = oep.OEPparams(algorithm = 'leastsq', opt_method = 'L-BFGS-B', diffP_tol=1e-3, outer_maxit = 20)
params.options['ftol'] = 1e-12
params.options['gtol'] = 1e-4
params.options['maxiter'] = 100
params.options['svd_thresh'] = 1e-5

theDMFET = dfet.DFET(mf, mol_frag, mol_env,Ne_frag,Ne_env,\
                     boundary_atoms=boundary_atoms, boundary_atoms2=boundary_atoms2,umat = umat,\
                     oep_params=params, smear_sigma=temp, ecw_method = 'hf',mf_method = mf.xc, plot_dens=True)

umat = theDMFET.embedding_potential()
#INFO: ******************** input file end ********************


System: uname_result(system='Linux', node='tiger-h25c2n22', release='3.10.0-957.27.2.el7.x86_64', version='#1 SMP Tue Jul 30 11:12:20 EDT 2019', machine='x86_64', processor='x86_64')  Threads 40
Python 3.7.0 (default, Jun 28 2018, 13:15:42) 
[GCC 7.2.0]
numpy 1.16.4  scipy 1.4.0.dev0+0f78e0f
Date: Mon Aug 26 23:34:49 2019
PySCF version 1.5
PySCF path  /home/xingz/.local/lib/python3.7/site-packages/pyscf

[CONFIG] conf_file None
[INPUT] verbose = 4
[INPUT] num. atoms = 12
[INPUT] num. electrons = 18
[INPUT] charge = 0
[INPUT] spin (= nelec alpha-beta = 2S) = 0
[INPUT] symmetry False subgroup None
[INPUT] Mole.unit = angstrom
[INPUT]  1 Al     8.092960000000   4.046480000000  -0.000000000000 AA   15.293477937060   7.646738968530  -0.000000000000 Bohr
[INPUT]  2 Al     8.092960000000   6.069720000000  -2.023240000000 AA   15.293477937060  11.470108452795  -3.823369484265 Bohr
[INPUT]  3 Al    10.116200000000   4.046480000000  -2.023240000000 AA   19.116847421325   7.646738968530  -3.823369484265 Bohr
[INPUT]  4 Al     6.069720000000   4.046480000000  -2.023240000000 AA   11.470108452795   7.646738968530  -3.823369484265 Bohr
[INPUT]  5 Al     8.092960000000   2.023240000000  -2.023240000000 AA   15.293477937060   3.823369484265  -3.823369484265 Bohr
[INPUT]  6 Al     8.092960000000   4.046480000000  -4.046480000000 AA   15.293477937060   7.646738968530  -7.646738968530 Bohr
[INPUT]  7 GHOST-Al   6.069720000000   6.069720000000  -0.000000000000 AA   11.470108452795  11.470108452795  -0.000000000000 Bohr
[INPUT]  8 GHOST-Al  10.116200000000   2.023240000000  -0.000000000000 AA   19.116847421325   3.823369484265  -0.000000000000 Bohr
[INPUT]  9 GHOST-Al  10.116200000000   6.069720000000  -4.046480000000 AA   19.116847421325  11.470108452795  -7.646738968530 Bohr
[INPUT] 10 GHOST-Al   6.069720000000   2.023240000000  -0.000000000000 AA   11.470108452795   3.823369484265  -0.000000000000 Bohr
[INPUT] 11 GHOST-Al   6.069720000000   6.069720000000  -4.046480000000 AA   11.470108452795  11.470108452795  -7.646738968530 Bohr
[INPUT] 12 GHOST-Al  10.116200000000   2.023240000000  -4.046480000000 AA   19.116847421325   3.823369484265  -7.646738968530 Bohr

nuclear repulsion = 23.5047992975816
number of shells = 48
number of NR pGTOs = 192
number of NR cGTOs = 96
basis = stuttgartdz
ecp = stuttgartdz
CPU time:       337.72
#INFO: **** input file is /tigress/xingz/pydmfet/examples/research/Al12/dmfet/least/Al12.py ****
from pydmfet import locints, sdmfet, oep, tools, dfet_ao, proj_ao
from pydmfet.dfet_ao import dfet
from pydmfet.qcwrap.pyscf_rks_ao import rks_ao
from pyscf import gto, scf,dft, ao2mo,cc
import numpy as np
from pyscf.tools import molden, cubegen
import copy,time
from pydmfet.tools.sym import h_lattice_sym_tab

bas = 'stuttgartdz'
ecp = 'stuttgartdz'
temp = 0.005


mol = gto.Mole()
mol.atom = open('Al12.xyz').read()
mol.basis = bas
mol.ecp = ecp
mol.build(max_memory = 4000, verbose=4)

mf = rks_ao(mol,smear_sigma = temp)
mf.xc = 'pbe,pbe'
mf.max_cycle = 50
mf.scf(dm0=None)

natoms = mol.natm
impAtom = np.zeros([natoms], dtype=int)
for i in range(6):
    impAtom[i] = 1

ghost_frag = 1-impAtom
ghost_env = 1-ghost_frag

mol_frag = gto.Mole()
mol_frag.atom = tools.add_ghost(mol.atom, ghost_frag)
mol_frag.basis = bas
mol_frag.ecp = ecp
mol_frag.build(max_memory = 4000,verbose = 4)

mol_env = gto.Mole()
mol_env.atom = tools.add_ghost(mol.atom, ghost_env)
mol_env.basis =  bas
mol_env.ecp = ecp
mol_env.build(max_memory = 4000,verbose = 4)

Ne_frag = 18
Ne_env = 18

boundary_atoms = None
boundary_atoms2 =None

umat = None
umat = np.load("umat.npy")

params = oep.OEPparams(algorithm = 'leastsq', opt_method = 'L-BFGS-B', diffP_tol=1e-3, outer_maxit = 20)
params.options['ftol'] = 1e-12
params.options['gtol'] = 1e-4
params.options['maxiter'] = 100
params.options['svd_thresh'] = 1e-5

theDMFET = dfet.DFET(mf, mol_frag, mol_env,Ne_frag,Ne_env,\
                     boundary_atoms=boundary_atoms, boundary_atoms2=boundary_atoms2,umat = umat,\
                     oep_params=params, smear_sigma=temp, ecw_method = 'hf',mf_method = mf.xc, plot_dens=True)

umat = theDMFET.embedding_potential()
#INFO: ******************** input file end ********************


System: uname_result(system='Linux', node='tiger-h25c2n22', release='3.10.0-957.27.2.el7.x86_64', version='#1 SMP Tue Jul 30 11:12:20 EDT 2019', machine='x86_64', processor='x86_64')  Threads 40
Python 3.7.0 (default, Jun 28 2018, 13:15:42) 
[GCC 7.2.0]
numpy 1.16.4  scipy 1.4.0.dev0+0f78e0f
Date: Mon Aug 26 23:34:49 2019
PySCF version 1.5
PySCF path  /home/xingz/.local/lib/python3.7/site-packages/pyscf

[CONFIG] conf_file None
[INPUT] verbose = 4
[INPUT] num. atoms = 12
[INPUT] num. electrons = 18
[INPUT] charge = 0
[INPUT] spin (= nelec alpha-beta = 2S) = 0
[INPUT] symmetry False subgroup None
[INPUT] Mole.unit = angstrom
[INPUT]  1 GHOST-Al   8.092960000000   4.046480000000  -0.000000000000 AA   15.293477937060   7.646738968530  -0.000000000000 Bohr
[INPUT]  2 GHOST-Al   8.092960000000   6.069720000000  -2.023240000000 AA   15.293477937060  11.470108452795  -3.823369484265 Bohr
[INPUT]  3 GHOST-Al  10.116200000000   4.046480000000  -2.023240000000 AA   19.116847421325   7.646738968530  -3.823369484265 Bohr
[INPUT]  4 GHOST-Al   6.069720000000   4.046480000000  -2.023240000000 AA   11.470108452795   7.646738968530  -3.823369484265 Bohr
[INPUT]  5 GHOST-Al   8.092960000000   2.023240000000  -2.023240000000 AA   15.293477937060   3.823369484265  -3.823369484265 Bohr
[INPUT]  6 GHOST-Al   8.092960000000   4.046480000000  -4.046480000000 AA   15.293477937060   7.646738968530  -7.646738968530 Bohr
[INPUT]  7 Al     6.069720000000   6.069720000000  -0.000000000000 AA   11.470108452795  11.470108452795  -0.000000000000 Bohr
[INPUT]  8 Al    10.116200000000   2.023240000000  -0.000000000000 AA   19.116847421325   3.823369484265  -0.000000000000 Bohr
[INPUT]  9 Al    10.116200000000   6.069720000000  -4.046480000000 AA   19.116847421325  11.470108452795  -7.646738968530 Bohr
[INPUT] 10 Al     6.069720000000   2.023240000000  -0.000000000000 AA   11.470108452795   3.823369484265  -0.000000000000 Bohr
[INPUT] 11 Al     6.069720000000   6.069720000000  -4.046480000000 AA   11.470108452795  11.470108452795  -7.646738968530 Bohr
[INPUT] 12 Al    10.116200000000   2.023240000000  -4.046480000000 AA   19.116847421325   3.823369484265  -7.646738968530 Bohr

nuclear repulsion = 14.0938802665721
number of shells = 48
number of NR pGTOs = 192
number of NR cGTOs = 96
basis = stuttgartdz
ecp = stuttgartdz
CPU time:       338.13


******** <class 'pydmfet.dfet_ao.scf.EmbedSCF'> flags ********
method = EmbedSCF-RKS-RHF
initial guess = minao
damping factor = 0
level shift factor = 0
DIIS = <class 'pyscf.scf.diis.CDIIS'>
DIIS start cycle = 1
DIIS space = 8
SCF tol = 1e-09
SCF gradient tol = None
max. SCF cycles = 50
direct_scf = False
chkfile to save SCF result = /tmp/tmptbpqlnah
max_memory 4000 MB (current use 540 MB)
XC functionals = pbe,pbe
small_rho_cutoff = 1e-07
radial grids: 
    Treutler-Ahlrichs (JCP 102, 346 (M4)) radial grids
    
becke partition: Becke, JCP, 88, 2547 (1988)
pruning grids: <function nwchem_prune at 0x2ba0026f0400>
grids dens level: 3
symmetrized grids: False
atomic radii adjust function: <function treutler_atomic_radii_adjust at 0x2ba0026f0378>
Set gradient conv threshold to 3.16228e-05
tot grids = 190200
init E= -9.26968304021844
HOMO: -0.2421786419107179 LUMO: -0.23867398533875409
mo_energy:
[-0.3681 -0.2682 -0.2663 -0.2662 -0.2598 -0.2596 -0.2589 -0.2422 -0.2422
 -0.2387 -0.2381 -0.2311 -0.2305 -0.2171]
e_fermi =  -0.24104586760903987
[2.    1.991 1.987 1.987 1.954 1.953 1.945 1.115 1.113 0.767 0.714 0.24
 0.217 0.017]
entropy correction =  -0.0390143947659636
cycle= 1 E= -12.9125841833435  delta_E= -3.64  |g|= 0.865  |ddm|= 4.92
HOMO: -0.4979770930052348 LUMO: -0.44852648441178855
mo_energy:
[-0.872 -0.676 -0.62  -0.619 -0.54  -0.53  -0.529 -0.498 -0.498 -0.449
 -0.444 -0.443 -0.431 -0.426]
e_fermi =  -0.4730194261769775
[2.    2.    2.    2.    2.    2.    2.    1.987 1.987 0.015 0.006 0.005]
entropy correction =  -0.0016449087525448045
cycle= 2 E= -12.8240162081787  delta_E= 0.0886  |g|= 1.09  |ddm|= 3.43
HOMO: -0.38402754056999516 LUMO: -0.3722162418069975
mo_energy:
[-0.59  -0.445 -0.418 -0.417 -0.409 -0.404 -0.403 -0.384 -0.384 -0.372
 -0.372 -0.372 -0.363 -0.335]
e_fermi =  -0.37947367434802715
[2.    2.    1.999 1.999 1.995 1.984 1.983 1.431 1.426 0.38  0.375 0.355
 0.073]
entropy correction =  -0.029117140071296965
cycle= 3 E= -13.3595830050686  delta_E= -0.536  |g|= 0.234  |ddm|=  1.8
HOMO: -0.3707429926697046 LUMO: -0.3707239081314307
mo_energy:
[-0.556 -0.405 -0.4   -0.399 -0.391 -0.39  -0.386 -0.371 -0.371 -0.371
 -0.366 -0.366 -0.358 -0.326]
e_fermi =  -0.37090330215081135
[2.    1.998 1.994 1.993 1.965 1.958 1.904 1.032 0.984 0.982 0.535 0.525
 0.129]
entropy correction =  -0.039099420830137434
cycle= 4 E= -13.3956308955236  delta_E= -0.036  |g|= 0.0867  |ddm|= 0.829
HOMO: -0.36700612309404607 LUMO: -0.3649199188538983
mo_energy:
[-0.55  -0.406 -0.395 -0.392 -0.388 -0.386 -0.384 -0.367 -0.367 -0.365
 -0.363 -0.362 -0.352 -0.321]
e_fermi =  -0.36676137764447764
[2.    1.999 1.993 1.988 1.971 1.961 1.943 1.038 1.024 0.818 0.626 0.537
 0.102]
entropy correction =  -0.03832640146818121
cycle= 5 E= -13.352008680004  delta_E= 0.0436  |g|= 0.271  |ddm|= 0.55
HOMO: -0.3659949676287381 LUMO: -0.36540910688761996
mo_energy:
[-0.55  -0.406 -0.393 -0.391 -0.387 -0.386 -0.385 -0.366 -0.366 -0.365
 -0.362 -0.362 -0.352 -0.321]
e_fermi =  -0.3664448624286016
[2.    1.999 1.989 1.985 1.97  1.962 1.951 0.997 0.955 0.897 0.617 0.575
 0.102]
entropy correction =  -0.038617243777955744
cycle= 6 E= -13.4014676901181  delta_E= -0.0495  |g|= 0.0489  |ddm|= 0.422
HOMO: -0.3669159671754794 LUMO: -0.3662548594481444
mo_energy:
[-0.551 -0.406 -0.393 -0.392 -0.388 -0.386 -0.385 -0.368 -0.367 -0.366
 -0.363 -0.362 -0.352 -0.322]
e_fermi =  -0.3672163850477499
[2.    1.999 1.989 1.987 1.972 1.954 1.948 1.068 0.97  0.904 0.574 0.54
 0.095]
entropy correction =  -0.03825620921623073
cycle= 7 E= -13.3995043945302  delta_E= 0.00196  |g|= 0.0628  |ddm|= 0.267
HOMO: -0.3685276205112761 LUMO: -0.36619903882173954
mo_energy:
[-0.551 -0.406 -0.394 -0.394 -0.388 -0.387 -0.386 -0.369 -0.369 -0.366
 -0.363 -0.363 -0.353 -0.323]
e_fermi =  -0.36796575976292106
[2.    1.999 1.99  1.988 1.961 1.96  1.943 1.063 1.056 0.825 0.563 0.559
 0.092]
entropy correction =  -0.03830445325427218
cycle= 8 E= -13.4032469715189  delta_E= -0.00374  |g|= 0.0214  |ddm|= 0.175
HOMO: -0.3676534174918822 LUMO: -0.3657662818677395
mo_energy:
[-0.549 -0.405 -0.393 -0.392 -0.387 -0.387 -0.385 -0.368 -0.368 -0.366
 -0.363 -0.363 -0.352 -0.322]
e_fermi =  -0.36730384063758387
[2.    1.999 1.989 1.987 1.961 1.961 1.942 1.036 1.035 0.847 0.575 0.574
 0.094]
entropy correction =  -0.03858766294132304
cycle= 9 E= -13.4029882040707  delta_E= 0.000259  |g|= 0.0305  |ddm|= 0.0609
HOMO: -0.3666160559131639 LUMO: -0.36528105021079893
mo_energy:
[-0.548 -0.404 -0.392 -0.391 -0.386 -0.386 -0.384 -0.367 -0.367 -0.365
 -0.362 -0.362 -0.352 -0.321]
e_fermi =  -0.3665629671597565
[2.    1.999 1.988 1.985 1.962 1.962 1.939 1.013 1.005 0.873 0.59  0.588
 0.096]
entropy correction =  -0.0388850810463495
cycle= 10 E= -13.4036562664073  delta_E= -0.000668  |g|= 0.00306  |ddm|= 0.0557
HOMO: -0.36631065436458254 LUMO: -0.3651308730443341
mo_energy:
[-0.547 -0.403 -0.391 -0.391 -0.386 -0.386 -0.384 -0.366 -0.366 -0.365
 -0.362 -0.362 -0.351 -0.321]
e_fermi =  -0.3663537480794596
[2.    1.999 1.987 1.986 1.962 1.962 1.939 1.008 0.996 0.878 0.595 0.591
 0.097]
entropy correction =  -0.03893569494747106
cycle= 11 E= -13.4036471889449  delta_E= 9.08e-06  |g|= 0.00405  |ddm|= 0.0217
HOMO: -0.3664674220903956 LUMO: -0.36514422215117476
mo_energy:
[-0.548 -0.403 -0.392 -0.391 -0.386 -0.386 -0.384 -0.366 -0.366 -0.365
 -0.362 -0.362 -0.352 -0.321]
e_fermi =  -0.36641735628371086
[2.    1.999 1.987 1.986 1.962 1.962 1.94  1.007 1.005 0.873 0.592 0.59
 0.097]
entropy correction =  -0.03889083486212973
cycle= 12 E= -13.4036583772674  delta_E= -1.12e-05  |g|= 0.00361  |ddm|= 0.0155
HOMO: -0.3664916887818492 LUMO: -0.36515087933082135
mo_energy:
[-0.548 -0.404 -0.392 -0.391 -0.386 -0.386 -0.384 -0.366 -0.366 -0.365
 -0.362 -0.362 -0.352 -0.321]
e_fermi =  -0.36642858081058605
[2.    1.999 1.987 1.986 1.962 1.962 1.94  1.007 1.006 0.873 0.591 0.59
 0.097]
entropy correction =  -0.03888685812693042
cycle= 13 E= -13.4036674779553  delta_E= -9.1e-06  |g|= 0.000569  |ddm|= 0.00692
HOMO: -0.36646839868920345 LUMO: -0.36514494502916106
mo_energy:
[-0.548 -0.404 -0.392 -0.391 -0.386 -0.386 -0.384 -0.366 -0.366 -0.365
 -0.362 -0.362 -0.352 -0.321]
e_fermi =  -0.36641930150047325
[2.    1.999 1.987 1.986 1.962 1.962 1.94  1.007 1.005 0.873 0.591 0.59
 0.097]
entropy correction =  -0.03888961470831534
cycle= 14 E= -13.4036656263829  delta_E= 1.85e-06  |g|= 0.00162  |ddm|= 0.00425
HOMO: -0.36646661314923756 LUMO: -0.3651476585071021
mo_energy:
[-0.548 -0.404 -0.392 -0.391 -0.386 -0.386 -0.384 -0.366 -0.366 -0.365
 -0.362 -0.362 -0.352 -0.321]
e_fermi =  -0.36642096925607165
[2.    1.999 1.987 1.986 1.962 1.962 1.94  1.007 1.005 0.873 0.591 0.59
 0.097]
entropy correction =  -0.038890519154599235
cycle= 15 E= -13.4036607333306  delta_E= 4.89e-06  |g|= 0.00304  |ddm|= 0.00585
HOMO: -0.36649534884724394 LUMO: -0.36516149035644346
mo_energy:
[-0.548 -0.404 -0.392 -0.391 -0.386 -0.386 -0.384 -0.367 -0.366 -0.365
 -0.362 -0.362 -0.352 -0.321]
e_fermi =  -0.36643618246017223
[2.    1.999 1.987 1.986 1.962 1.962 1.94  1.007 1.006 0.873 0.591 0.59
 0.097]
entropy correction =  -0.038889687152219084
cycle= 16 E= -13.4036676237554  delta_E= -6.89e-06  |g|= 0.000373  |ddm|= 0.00526
HOMO: -0.3665052539869789 LUMO: -0.3651677906868379
mo_energy:
[-0.548 -0.404 -0.392 -0.391 -0.386 -0.386 -0.384 -0.367 -0.367 -0.365
 -0.362 -0.362 -0.352 -0.321]
e_fermi =  -0.36644412546355015
[2.    1.999 1.987 1.986 1.962 1.962 1.94  1.007 1.006 0.873 0.591 0.59
 0.097]
entropy correction =  -0.038887783608709446
cycle= 17 E= -13.4036677557071  delta_E= -1.32e-07  |g|= 0.000148  |ddm|= 0.00115
HOMO: -0.36650344590470435 LUMO: -0.36516646021269744
mo_energy:
[-0.548 -0.404 -0.392 -0.391 -0.386 -0.386 -0.384 -0.367 -0.367 -0.365
 -0.362 -0.362 -0.352 -0.321]
e_fermi =  -0.36644231950188705
[2.    1.999 1.987 1.986 1.962 1.962 1.94  1.007 1.006 0.873 0.591 0.59
 0.097]
entropy correction =  -0.03888906494607649
cycle= 18 E= -13.4036674950702  delta_E= 2.61e-07  |g|= 0.00062  |ddm|= 0.0011
HOMO: -0.3664980717413266 LUMO: -0.3651622916580054
mo_energy:
[-0.548 -0.404 -0.392 -0.391 -0.386 -0.386 -0.384 -0.367 -0.366 -0.365
 -0.362 -0.362 -0.352 -0.321]
e_fermi =  -0.3664378851563042
[2.    1.999 1.987 1.986 1.962 1.962 1.94  1.007 1.006 0.873 0.591 0.59
 0.097]
entropy correction =  -0.03888939801567633
cycle= 19 E= -13.4036677701886  delta_E= -2.75e-07  |g|= 6.23e-05  |ddm|= 0.000969
HOMO: -0.36649877899735117 LUMO: -0.365162567798798
mo_energy:
[-0.548 -0.404 -0.392 -0.391 -0.386 -0.386 -0.384 -0.367 -0.366 -0.365
 -0.362 -0.362 -0.352 -0.321]
e_fermi =  -0.36643859172479765
[2.    1.999 1.987 1.986 1.962 1.962 1.94  1.007 1.006 0.873 0.591 0.59
 0.097]
entropy correction =  -0.03888869264214261
cycle= 20 E= -13.4036677736729  delta_E= -3.48e-09  |g|= 1.96e-05  |ddm|= 0.000206
HOMO: -0.36649988191728045 LUMO: -0.36516277243011586
mo_energy:
[-0.548 -0.404 -0.392 -0.391 -0.386 -0.386 -0.384 -0.367 -0.366 -0.365
 -0.362 -0.362 -0.352 -0.321]
e_fermi =  -0.36643903786520643
[2.    1.999 1.987 1.986 1.962 1.962 1.94  1.007 1.006 0.873 0.591 0.59
 0.097]
entropy correction =  -0.03888832213406529
cycle= 21 E= -13.4036677684634  delta_E= 5.21e-09  |g|= 8.9e-05  |ddm|= 0.000209
HOMO: -0.3664996649116653 LUMO: -0.3651627398438488
mo_energy:
[-0.548 -0.404 -0.392 -0.391 -0.386 -0.386 -0.384 -0.367 -0.366 -0.365
 -0.362 -0.362 -0.352 -0.321]
e_fermi =  -0.366439028945947
[2.    1.999 1.987 1.986 1.962 1.962 1.94  1.007 1.006 0.873 0.591 0.59
 0.097]
entropy correction =  -0.03888829002964351
cycle= 22 E= -13.4036677721806  delta_E= -3.72e-09  |g|= 4.9e-05  |ddm|= 0.000232
HOMO: -0.3664986502308892 LUMO: -0.3651623242456798
mo_energy:
[-0.548 -0.404 -0.392 -0.391 -0.386 -0.386 -0.384 -0.367 -0.366 -0.365
 -0.362 -0.362 -0.352 -0.321]
e_fermi =  -0.36643837887249675
[2.    1.999 1.987 1.986 1.962 1.962 1.94  1.007 1.006 0.873 0.591 0.59
 0.097]
entropy correction =  -0.03888866040781462
cycle= 23 E= -13.4036677740355  delta_E= -1.85e-09  |g|= 1.29e-05  |ddm|= 0.000116
HOMO: -0.3664987279781358 LUMO: -0.36516234734902325
mo_energy:
[-0.548 -0.404 -0.392 -0.391 -0.386 -0.386 -0.384 -0.367 -0.366 -0.365
 -0.362 -0.362 -0.352 -0.321]
e_fermi =  -0.3664384002805309
[2.    1.999 1.987 1.986 1.962 1.962 1.94  1.007 1.006 0.873 0.591 0.59
 0.097]
entropy correction =  -0.03888866359310574
cycle= 24 E= -13.4036677741335  delta_E= -9.8e-11  |g|= 8.08e-06  |ddm|= 2.98e-05
HOMO: -0.366499301303395 LUMO: -0.36516264644127144
mo_energy:
[-0.548 -0.404 -0.392 -0.391 -0.386 -0.386 -0.384 -0.367 -0.366 -0.365
 -0.362 -0.362 -0.352 -0.321]
e_fermi =  -0.36643875565003026
[2.    1.999 1.987 1.986 1.962 1.962 1.94  1.007 1.006 0.873 0.591 0.59
 0.097]
entropy correction =  -0.038888580980547996
Extra cycle  E= -13.4036677670256  delta_E= 7.11e-09  |g|= 0.000101  |ddm|= 0.000158
converged SCF energy = -13.4036677670256


******** <class 'pydmfet.dfet_ao.scf.EmbedSCF'> flags ********
method = EmbedSCF-RKS-RHF
initial guess = minao
damping factor = 0
level shift factor = 0
DIIS = <class 'pyscf.scf.diis.CDIIS'>
DIIS start cycle = 1
DIIS space = 8
SCF tol = 1e-09
SCF gradient tol = None
max. SCF cycles = 50
direct_scf = False
chkfile to save SCF result = /tmp/tmpw76t740g
max_memory 4000 MB (current use 5556 MB)
XC functionals = pbe,pbe
small_rho_cutoff = 1e-07
radial grids: 
    Treutler-Ahlrichs (JCP 102, 346 (M4)) radial grids
    
becke partition: Becke, JCP, 88, 2547 (1988)
pruning grids: <function nwchem_prune at 0x2ba0026f0400>
grids dens level: 3
symmetrized grids: False
atomic radii adjust function: <function treutler_atomic_radii_adjust at 0x2ba0026f0378>
Set gradient conv threshold to 3.16228e-05
tot grids = 190200
init E= -9.12169490073838
HOMO: -0.18203744429665117 LUMO: -0.17115755672022998
mo_energy:
[-0.296 -0.296 -0.264 -0.236 -0.191 -0.188 -0.188 -0.182 -0.182 -0.171
 -0.168 -0.157 -0.157 -0.149]
e_fermi =  -0.17502218661674462
[2.    2.    2.    2.    1.915 1.851 1.85  1.606 1.605 0.632 0.403 0.058
 0.057 0.012 0.011]
entropy correction =  -0.031621998369856776
cycle= 1 E= -12.4375882371628  delta_E= -3.32  |g|= 0.773  |ddm|= 5.23
HOMO: -0.13313258573985015 LUMO: -0.12997866239235834
mo_energy:
[-0.352 -0.352 -0.312 -0.261 -0.239 -0.239 -0.153 -0.133 -0.133 -0.13
 -0.111 -0.11  -0.109 -0.104]
e_fermi =  -0.12911217176623124
[2.000e+00 2.000e+00 2.000e+00 2.000e+00 2.000e+00 2.000e+00 1.982e+00
 1.394e+00 1.382e+00 1.086e+00 4.832e-02 4.581e-02 3.626e-02 1.250e-02
 1.079e-02 1.041e-03]
entropy correction =  -0.023693035677846974
cycle= 2 E= -12.3597151232815  delta_E= 0.0779  |g|= 0.987  |ddm|=  2.9
HOMO: -0.2179457895922886 LUMO: -0.2095777907324591
mo_energy:
[-0.375 -0.375 -0.342 -0.294 -0.24  -0.24  -0.235 -0.218 -0.218 -0.21
 -0.208 -0.208 -0.2   -0.191]
e_fermi =  -0.21474064988812616
[2.000e+00 2.000e+00 2.000e+00 2.000e+00 1.988e+00 1.988e+00 1.967e+00
 1.312e+00 1.310e+00 5.252e-01 3.896e-01 3.865e-01 1.013e-01 1.570e-02
 1.552e-02 1.049e-03]
entropy correction =  -0.03300585184998387
cycle= 3 E= -12.7484771495571  delta_E= -0.389  |g|= 0.228  |ddm|= 1.38
HOMO: -0.21849409998653435 LUMO: -0.21368715123863496
mo_energy:
[-0.365 -0.365 -0.333 -0.288 -0.233 -0.228 -0.228 -0.219 -0.218 -0.214
 -0.214 -0.209 -0.201 -0.192]
e_fermi =  -0.21623979386904602
[2.    2.    2.    2.    1.929 1.825 1.816 1.224 1.222 0.75  0.748 0.357
 0.097 0.016 0.015]
entropy correction =  -0.0417295926774237
cycle= 4 E= -12.7743319910397  delta_E= -0.0259  |g|= 0.0634  |ddm|= 0.534
HOMO: -0.21874214322322852 LUMO: -0.2139704784890823
mo_energy:
[-0.365 -0.364 -0.332 -0.288 -0.233 -0.227 -0.227 -0.219 -0.219 -0.214
 -0.213 -0.209 -0.201 -0.192]
e_fermi =  -0.21633255977892463
[2.    2.    2.    2.    1.936 1.804 1.795 1.243 1.236 0.768 0.712 0.384
 0.093 0.014 0.013]
entropy correction =  -0.041991609513046806
cycle= 5 E= -12.7554665027042  delta_E= 0.0189  |g|= 0.171  |ddm|= 0.344
HOMO: -0.21836652029983827 LUMO: -0.2135823817933625
mo_energy:
[-0.364 -0.364 -0.332 -0.288 -0.233 -0.227 -0.227 -0.218 -0.218 -0.214
 -0.213 -0.209 -0.201 -0.192]
e_fermi =  -0.2160998347216019
[2.    2.    2.    2.    1.933 1.81  1.806 1.225 1.223 0.753 0.745 0.383
 0.09  0.016 0.015]
entropy correction =  -0.04202012400357167
cycle= 6 E= -12.7776519297478  delta_E= -0.0222  |g|= 0.0118  |ddm|= 0.266
HOMO: -0.21815951599194858 LUMO: -0.21321581825901414
mo_energy:
[-0.364 -0.364 -0.332 -0.288 -0.232 -0.227 -0.227 -0.218 -0.218 -0.213
 -0.213 -0.208 -0.201 -0.192]
e_fermi =  -0.21579206550383434
[2.    2.    2.    2.    1.931 1.806 1.805 1.237 1.232 0.748 0.743 0.375
 0.09  0.016 0.016]
entropy correction =  -0.04201502992377036
cycle= 7 E= -12.7778575669118  delta_E= -0.000206  |g|= 0.00623  |ddm|= 0.0497
HOMO: -0.21829216060555803 LUMO: -0.21333665241424837
mo_energy:
[-0.364 -0.364 -0.332 -0.288 -0.233 -0.227 -0.227 -0.218 -0.218 -0.213
 -0.213 -0.209 -0.201 -0.192]
e_fermi =  -0.2159049377081201
[2.    2.    2.    2.    1.931 1.806 1.803 1.235 1.234 0.749 0.746 0.374
 0.09  0.016 0.016]
entropy correction =  -0.04202940089478213
cycle= 8 E= -12.7778463304108  delta_E= 1.12e-05  |g|= 0.00777  |ddm|= 0.0269
HOMO: -0.21840663155505832 LUMO: -0.21350872128170242
mo_energy:
[-0.364 -0.364 -0.332 -0.288 -0.233 -0.227 -0.227 -0.218 -0.218 -0.214
 -0.213 -0.209 -0.201 -0.192]
e_fermi =  -0.2160317522085536
[2.    2.    2.    2.    1.931 1.805 1.802 1.234 1.233 0.753 0.747 0.373
 0.089 0.016 0.015]
entropy correction =  -0.04204962039962509
cycle= 9 E= -12.7778806011716  delta_E= -3.43e-05  |g|= 0.00336  |ddm|= 0.0191
HOMO: -0.21843885258030205 LUMO: -0.21353497891331938
mo_energy:
[-0.364 -0.364 -0.332 -0.288 -0.233 -0.227 -0.227 -0.218 -0.218 -0.214
 -0.214 -0.209 -0.201 -0.192]
e_fermi =  -0.2160651649302737
[2.    2.    2.    2.    1.931 1.804 1.802 1.234 1.233 0.752 0.75  0.372
 0.089 0.016 0.016]
entropy correction =  -0.04206658704799891
cycle= 10 E= -12.7778839317041  delta_E= -3.33e-06  |g|= 0.00296  |ddm|= 0.00851
HOMO: -0.2184308162973153 LUMO: -0.21352243601818496
mo_energy:
[-0.364 -0.364 -0.332 -0.288 -0.233 -0.227 -0.227 -0.218 -0.218 -0.214
 -0.214 -0.209 -0.201 -0.192]
e_fermi =  -0.21606292833873522
[2.    2.    2.    2.    1.931 1.804 1.802 1.234 1.232 0.751 0.751 0.372
 0.089 0.016 0.016]
entropy correction =  -0.04206717022501159
cycle= 11 E= -12.7778903367762  delta_E= -6.41e-06  |g|= 0.000625  |ddm|= 0.00556
HOMO: -0.21840171934385907 LUMO: -0.21348638370554068
mo_energy:
[-0.364 -0.364 -0.332 -0.288 -0.233 -0.227 -0.227 -0.218 -0.218 -0.213
 -0.213 -0.209 -0.201 -0.192]
e_fermi =  -0.2160302878404669
[2.    2.    2.    2.    1.931 1.805 1.802 1.234 1.233 0.751 0.75  0.372
 0.089 0.016 0.016]
entropy correction =  -0.04205450887408852
cycle= 12 E= -12.7778904314827  delta_E= -9.47e-08  |g|= 0.000535  |ddm|= 0.0022
HOMO: -0.21839908697381558 LUMO: -0.2134839131588061
mo_energy:
[-0.364 -0.364 -0.332 -0.288 -0.233 -0.227 -0.227 -0.218 -0.218 -0.213
 -0.213 -0.209 -0.201 -0.192]
e_fermi =  -0.21602804976887036
[2.    2.    2.    2.    1.931 1.804 1.803 1.234 1.233 0.751 0.75  0.372
 0.089 0.016 0.016]
entropy correction =  -0.04205464487812451
cycle= 13 E= -12.7778906510646  delta_E= -2.2e-07  |g|= 0.000123  |ddm|= 0.00145
HOMO: -0.21839984159011966 LUMO: -0.21348410311625393
mo_energy:
[-0.364 -0.364 -0.332 -0.288 -0.233 -0.227 -0.227 -0.218 -0.218 -0.213
 -0.213 -0.209 -0.201 -0.192]
e_fermi =  -0.21602846718447208
[2.    2.    2.    2.    1.931 1.804 1.802 1.234 1.233 0.751 0.75  0.372
 0.089 0.016 0.016]
entropy correction =  -0.04205540314766241
cycle= 14 E= -12.777890662907  delta_E= -1.18e-08  |g|= 2.83e-05  |ddm|= 0.00033
HOMO: -0.21840060978456727 LUMO: -0.21348514650679326
mo_energy:
[-0.364 -0.364 -0.332 -0.288 -0.233 -0.227 -0.227 -0.218 -0.218 -0.213
 -0.213 -0.209 -0.201 -0.192]
e_fermi =  -0.21602918507788443
[2.    2.    2.    2.    1.931 1.804 1.802 1.234 1.233 0.751 0.75  0.372
 0.089 0.016 0.016]
entropy correction =  -0.042055650567693975
cycle= 15 E= -12.7778906641229  delta_E= -1.22e-09  |g|= 7.49e-06  |ddm|= 0.000125
HOMO: -0.21840136820267747 LUMO: -0.21348584192252879
mo_energy:
[-0.364 -0.364 -0.332 -0.288 -0.233 -0.227 -0.227 -0.218 -0.218 -0.213
 -0.213 -0.209 -0.201 -0.192]
e_fermi =  -0.2160300009557678
[2.    2.    2.    2.    1.931 1.804 1.803 1.234 1.233 0.751 0.75  0.372
 0.089 0.016 0.016]
entropy correction =  -0.042055675229420955
cycle= 16 E= -12.7778906627375  delta_E= 1.39e-09  |g|= 4.21e-05  |ddm|= 0.000103
HOMO: -0.21840114860491114 LUMO: -0.21348577371494767
mo_energy:
[-0.364 -0.364 -0.332 -0.288 -0.233 -0.227 -0.227 -0.218 -0.218 -0.213
 -0.213 -0.209 -0.201 -0.192]
e_fermi =  -0.21602980947863337
[2.    2.    2.    2.    1.931 1.804 1.802 1.234 1.233 0.751 0.75  0.372
 0.089 0.016 0.016]
entropy correction =  -0.042055594323637556
cycle= 17 E= -12.7778906641482  delta_E= -1.41e-09  |g|= 5.65e-06  |ddm|= 8.45e-05
HOMO: -0.21840107169713438 LUMO: -0.2134857039617747
mo_energy:
[-0.364 -0.364 -0.332 -0.288 -0.233 -0.227 -0.227 -0.218 -0.218 -0.213
 -0.213 -0.209 -0.201 -0.192]
e_fermi =  -0.21602973033495076
[2.    2.    2.    2.    1.931 1.804 1.802 1.234 1.233 0.751 0.75  0.372
 0.089 0.016 0.016]
entropy correction =  -0.042055585468667285
cycle= 18 E= -12.7778906641634  delta_E= -1.52e-11  |g|= 3.7e-06  |ddm|= 1.68e-05
HOMO: -0.21840103342611503 LUMO: -0.2134855341384142
mo_energy:
[-0.364 -0.364 -0.332 -0.288 -0.233 -0.227 -0.227 -0.218 -0.218 -0.213
 -0.213 -0.209 -0.201 -0.192]
e_fermi =  -0.21602963574580145
[2.    2.    2.    2.    1.931 1.804 1.802 1.234 1.233 0.751 0.75  0.372
 0.089 0.016 0.016]
entropy correction =  -0.042055638894874105
Extra cycle  E= -12.7778906636237  delta_E= 5.4e-10  |g|= 2.65e-05  |ddm|= 5.62e-05
converged SCF energy = -12.7778906636237
|umat| =  2.7562086274569353
rks_ao.ne_frozen =  0
Set gradient conv threshold to 3.16228e-05
Initial guess from hcore.
HOMO:  -3.505947690696779 LUMO:  -3.312360102804202
Fermi energy:      -3.4073950945
[2. 2. 2. 2. 2. 2. 2. 2. 2.]
tot grids = 190200
init E= -10.1226742079723
HOMO:  -0.0680823217026216 LUMO:  -0.06764672497213124
Fermi energy:      -0.0725538148
[2.     2.     2.     2.     2.     2.     1.9951 1.9522 0.5804 0.5452
 0.4744 0.4526]
entropy correction =  -0.024009754226500243
cycle= 1 E= -10.2330004951277  delta_E= -0.11  |g|= 2.75  |ddm|= 7.87
HOMO:  -0.7782269071305117 LUMO:  -0.6487725636150204
Fermi energy:      -0.7121929805
[2. 2. 2. 2. 2. 2. 2. 2. 2.]
entropy correction =  -1.0279871145069367e-06
cycle= 2 E= -11.544885463381  delta_E= -1.31  |g|= 2.03  |ddm|= 6.47
HOMO:  -0.4504974947268299 LUMO:  -0.41765687917004246
Fermi energy:      -0.4347737074
[2.0000e+00 2.0000e+00 2.0000e+00 2.0000e+00 1.9997e+00 1.9970e+00
 1.9970e+00 1.9186e+00 1.9174e+00 6.3146e-02 6.1936e-02 2.7570e-02
 1.7053e-02 6.5562e-04]
entropy correction =  -0.007695154879364725
cycle= 3 E= -13.2354576481741  delta_E= -1.69  |g|= 0.545  |ddm|= 3.79
HOMO:  -0.36602171091725505 LUMO:  -0.36538144513670723
Fermi energy:      -0.3682235022
[2.0000e+00 1.9985e+00 1.9948e+00 1.9941e+00 1.9768e+00 1.9756e+00
 1.8863e+00 1.2661e+00 7.8331e-01 7.2321e-01 6.0072e-01 5.5715e-01
 2.4321e-01 2.0042e-04]
entropy correction =  -0.039465769369366084
cycle= 4 E= -13.3678094237044  delta_E= -0.132  |g|= 0.207  |ddm|= 1.69
HOMO:  -0.3689033993252562 LUMO:  -0.3633986058253326
Fermi energy:      -0.3679573318
[2.0000e+00 1.9998e+00 1.9985e+00 1.9982e+00 1.9831e+00 1.9774e+00
 1.9478e+00 1.4316e+00 1.0943e+00 5.7329e-01 4.6928e-01 4.4755e-01
 7.8856e-02 1.6701e-04]
entropy correction =  -0.03373633414675545
cycle= 5 E= -13.0094885846794  delta_E= 0.358  |g|= 0.752  |ddm|= 1.39
HOMO:  -0.37356654144608936 LUMO:  -0.36933153877116953
Fermi energy:      -0.3720661065
[2.0000e+00 1.9998e+00 1.9964e+00 1.9940e+00 1.9731e+00 1.9674e+00
 1.9615e+00 1.1705e+00 1.1489e+00 7.3316e-01 4.9408e-01 4.6965e-01
 9.1336e-02 2.0462e-04]
entropy correction =  -0.03592770709287973
cycle= 6 E= -13.3894034501407  delta_E= -0.38  |g|= 0.135  |ddm|= 1.05
HOMO:  -0.37229458245918273 LUMO:  -0.3712857774111805
Fermi energy:      -0.3716564381
[2.0000e+00 1.9993e+00 1.9956e+00 1.9852e+00 1.9771e+00 1.9498e+00
 1.9272e+00 1.2303e+00 1.0637e+00 9.6295e-01 5.4789e-01 2.9181e-01
 6.8822e-02 2.2320e-04]
entropy correction =  -0.03602032183740953
cycle= 7 E= -13.3740578304318  delta_E= 0.0153  |g|= 0.167  |ddm|= 0.593
HOMO:  -0.3709102723240855 LUMO:  -0.36809181400522634
Fermi energy:      -0.3702733098
[2.0000e+00 1.9989e+00 1.9907e+00 1.9887e+00 1.9613e+00 1.9552e+00
 1.9386e+00 1.1706e+00 1.0636e+00 7.8525e-01 5.4042e-01 5.2259e-01
 8.3832e-02 2.4025e-04]
entropy correction =  -0.0378152724455783
cycle= 8 E= -13.399122391924  delta_E= -0.0251  |g|= 0.0764  |ddm|= 0.499
HOMO:  -0.3691479851474701 LUMO:  -0.36691645070299034
Fermi energy:      -0.3686832628
[2.0000e+00 1.9988e+00 1.9896e+00 1.9868e+00 1.9640e+00 1.9549e+00
 1.9396e+00 1.1016e+00 1.0464e+00 8.2513e-01 5.5845e-01 5.4735e-01
 8.7202e-02 2.3597e-04]
entropy correction =  -0.03828250134337783
cycle= 9 E= -13.3948113696321  delta_E= 0.00431  |g|= 0.11  |ddm|= 0.268
HOMO:  -0.3652373672097995 LUMO:  -0.36468608378257555
Fermi energy:      -0.3658181744
[2.0000e+00 1.9987e+00 1.9864e+00 1.9818e+00 1.9636e+00 1.9631e+00
 1.9374e+00 1.0381e+00 9.4198e-01 8.8727e-01 6.1697e-01 5.8921e-01
 9.5182e-02 2.2849e-04]
entropy correction =  -0.0390732409934757
cycle= 10 E= -13.4015216680616  delta_E= -0.00671  |g|= 0.0515  |ddm|= 0.242
HOMO:  -0.364962572496565 LUMO:  -0.36449443322013875
Fermi energy:      -0.3653925504
[2.0000e+00 1.9987e+00 1.9858e+00 1.9839e+00 1.9639e+00 1.9618e+00
 1.9392e+00 9.9608e-01 9.5703e-01 9.1043e-01 6.0786e-01 5.9567e-01
 9.9401e-02 2.2634e-04]
entropy correction =  -0.039117993487916454
cycle= 11 E= -13.4015459136797  delta_E= -2.42e-05  |g|= 0.0565  |ddm|= 0.165
HOMO:  -0.3651435780942213 LUMO:  -0.36439696795899973
Fermi energy:      -0.3654766915
[2.0000e+00 1.9988e+00 1.9863e+00 1.9841e+00 1.9637e+00 1.9629e+00
 1.9409e+00 9.9688e-01 9.6670e-01 8.9245e-01 6.1004e-01 5.9820e-01
 9.8804e-02 2.2852e-04]
entropy correction =  -0.039047943750701516
cycle= 12 E= -13.4035230470633  delta_E= -0.00198  |g|= 0.0162  |ddm|= 0.122
HOMO:  -0.36645427552520954 LUMO:  -0.3651347025865525
Fermi energy:      -0.3663943449
[2.0000e+00 1.9988e+00 1.9876e+00 1.9856e+00 1.9620e+00 1.9616e+00
 1.9393e+00 1.0104e+00 1.0060e+00 8.7470e-01 5.8924e-01 5.8743e-01
 9.7149e-02 2.3308e-04]
entropy correction =  -0.03889237964085122
cycle= 13 E= -13.4037745441024  delta_E= -0.000251  |g|= 0.00255  |ddm|= 0.0494
HOMO:  -0.366545569770566 LUMO:  -0.3652017266518604
Fermi energy:      -0.3664848814
[2.0000e+00 1.9988e+00 1.9873e+00 1.9858e+00 1.9626e+00 1.9612e+00
 1.9398e+00 1.0120e+00 1.0061e+00 8.7238e-01 5.9031e-01 5.8687e-01
 9.6689e-02 2.3250e-04]
entropy correction =  -0.038874906243319025
cycle= 14 E= -13.4037591209791  delta_E= 1.54e-05  |g|= 0.0045  |ddm|= 0.0182
HOMO:  -0.36656573967434847 LUMO:  -0.365197471669415
Fermi energy:      -0.3664934746
[2.0000e+00 1.9988e+00 1.9874e+00 1.9855e+00 1.9622e+00 1.9618e+00
 1.9403e+00 1.0101e+00 1.0072e+00 8.7112e-01 5.9008e-01 5.8854e-01
 9.6540e-02 2.3174e-04]
entropy correction =  -0.038864914042921105
cycle= 15 E= -13.4037789223516  delta_E= -1.98e-05  |g|= 0.00139  |ddm|= 0.0149
HOMO:  -0.3665925820766633 LUMO:  -0.3652222868318009
Fermi energy:      -0.3665102140
[2.0000e+00 1.9988e+00 1.9874e+00 1.9855e+00 1.9620e+00 1.9618e+00
 1.9398e+00 1.0095e+00 1.0082e+00 8.7191e-01 5.8930e-01 5.8884e-01
 9.6635e-02 2.3247e-04]
entropy correction =  -0.03887956107144869
cycle= 16 E= -13.4037800982041  delta_E= -1.18e-06  |g|= 0.00122  |ddm|= 0.00511
HOMO:  -0.3665936243894033 LUMO:  -0.365230579515398
Fermi energy:      -0.3665157226
[2.0000e+00 1.9988e+00 1.9874e+00 1.9855e+00 1.9622e+00 1.9615e+00
 1.9396e+00 1.0099e+00 1.0078e+00 8.7219e-01 5.9002e-01 5.8812e-01
 9.6651e-02 2.3274e-04]
entropy correction =  -0.038885698183514734
cycle= 17 E= -13.4037781209704  delta_E= 1.98e-06  |g|= 0.0018  |ddm|= 0.00605
HOMO:  -0.3666019869744096 LUMO:  -0.3652266279512529
Fermi energy:      -0.3665151453
[2.0000e+00 1.9988e+00 1.9874e+00 1.9855e+00 1.9620e+00 1.9618e+00
 1.9398e+00 1.0092e+00 1.0087e+00 8.7186e-01 5.8931e-01 5.8877e-01
 9.6626e-02 2.3250e-04]
entropy correction =  -0.03887947249433732
cycle= 18 E= -13.4037792233073  delta_E= -1.1e-06  |g|= 0.00162  |ddm|= 0.0062
HOMO:  -0.36658118460715655 LUMO:  -0.3652168595379508
Fermi energy:      -0.3665021862
[2.0000e+00 1.9988e+00 1.9874e+00 1.9855e+00 1.9621e+00 1.9618e+00
 1.9398e+00 1.0092e+00 1.0079e+00 8.7217e-01 5.8964e-01 5.8894e-01
 9.6654e-02 2.3252e-04]
entropy correction =  -0.038883950849553775
cycle= 19 E= -13.4037812178821  delta_E= -1.99e-06  |g|= 0.000245  |ddm|= 0.00303
HOMO:  -0.3665638882317271 LUMO:  -0.3652047173756182
Fermi energy:      -0.3664848450
[2.0000e+00 1.9988e+00 1.9873e+00 1.9855e+00 1.9621e+00 1.9618e+00
 1.9397e+00 1.0082e+00 1.0079e+00 8.7268e-01 5.8997e-01 5.8911e-01
 9.6716e-02 2.3254e-04]
entropy correction =  -0.03888920166696829
cycle= 20 E= -13.4037791912212  delta_E= 2.03e-06  |g|= 0.00173  |ddm|= 0.00323
HOMO:  -0.3665679936682536 LUMO:  -0.3652072431410233
Fermi energy:      -0.3664885260
[2.0000e+00 1.9988e+00 1.9874e+00 1.9855e+00 1.9621e+00 1.9618e+00
 1.9398e+00 1.0084e+00 1.0079e+00 8.7257e-01 5.8993e-01 5.8893e-01
 9.6713e-02 2.3247e-04]
entropy correction =  -0.03888650318837975
cycle= 21 E= -13.4037811353542  delta_E= -1.94e-06  |g|= 0.000399  |ddm|= 0.00299
HOMO:  -0.36656853017512503 LUMO:  -0.36520913144618783
Fermi energy:      -0.3664906025
[2.0000e+00 1.9988e+00 1.9874e+00 1.9855e+00 1.9621e+00 1.9618e+00
 1.9398e+00 1.0087e+00 1.0078e+00 8.7255e-01 5.8980e-01 5.8898e-01
 9.6712e-02 2.3249e-04]
entropy correction =  -0.038886488015302575
cycle= 22 E= -13.403781274264  delta_E= -1.39e-07  |g|= 4.29e-05  |ddm|= 0.000934
HOMO:  -0.3665729887170382 LUMO:  -0.3652115831457737
Fermi energy:      -0.3664938371
[2.0000e+00 1.9988e+00 1.9874e+00 1.9855e+00 1.9621e+00 1.9618e+00
 1.9398e+00 1.0087e+00 1.0079e+00 8.7247e-01 5.8974e-01 5.8894e-01
 9.6704e-02 2.3250e-04]
entropy correction =  -0.038885648326504915
cycle= 23 E= -13.4037812756488  delta_E= -1.38e-09  |g|= 2.32e-05  |ddm|= 0.000132
HOMO:  -0.3665729258932154 LUMO:  -0.36521135749650296
Fermi energy:      -0.3664938892
[2.0000e+00 1.9988e+00 1.9874e+00 1.9855e+00 1.9621e+00 1.9618e+00
 1.9398e+00 1.0087e+00 1.0079e+00 8.7245e-01 5.8975e-01 5.8894e-01
 9.6699e-02 2.3249e-04]
entropy correction =  -0.038885460331978525
cycle= 24 E= -13.4037812755408  delta_E= 1.08e-10  |g|= 2.42e-05  |ddm|= 0.000106
HOMO:  -0.36657571479903 LUMO:  -0.365212626019175
Fermi energy:      -0.3664954234
[2.0000e+00 1.9988e+00 1.9874e+00 1.9855e+00 1.9621e+00 1.9618e+00
 1.9398e+00 1.0087e+00 1.0080e+00 8.7242e-01 5.8966e-01 5.8897e-01
 9.6697e-02 2.3250e-04]
entropy correction =  -0.03888525200691876
Extra cycle  E= -13.4037812562472  delta_E= 1.93e-08  |g|= 0.00014  |ddm|= 0.000439
entropy correction =  -0.03888525200691876
rks_ao.ne_frozen =  0
Set gradient conv threshold to 3.16228e-05
Initial guess from hcore.
HOMO:  -2.5708569793522558 LUMO:  -2.570362202716235
Fermi energy:      -2.5712265090
[2.0000e+00 2.0000e+00 2.0000e+00 2.0000e+00 2.0000e+00 2.0000e+00
 2.0000e+00 1.9952e+00 9.6306e-01 9.1378e-01 6.0703e-02 5.8729e-02
 3.9970e-03 3.7551e-03 7.4027e-04]
tot grids = 190200
init E= -9.69352618975208
HOMO:  0.01985294366363389 LUMO:  0.022745491828755002
Fermi energy:       0.0196690460
[2.     2.     2.     2.     2.     2.     1.9949 1.3616 0.9816 0.7017
 0.449  0.2223 0.1119 0.084  0.0438 0.0357 0.0084 0.0027 0.0024]
entropy correction =  -0.034977480570602223
cycle= 1 E= -10.9844134015496  delta_E= -1.29  |g|= 2.09  |ddm|= 9.58
HOMO:  -0.45047421902055124 LUMO:  -0.4395582671622892
Fermi energy:      -0.4449873173
[2.     2.     2.     2.     2.     2.     1.9994 1.5768 1.4995 0.5048
 0.2028 0.18   0.0342 0.0023]
entropy correction =  -0.023733646627523464
cycle= 2 E= -11.0813345572561  delta_E= -0.0969  |g|= 2.12  |ddm|=  9.4
HOMO:  -0.2976901076817365 LUMO:  -0.28382421553169707
Fermi energy:      -0.2895428468
[2.     2.     2.     2.     1.9966 1.9861 1.9779 1.6979 1.6722 0.4833
 0.0684 0.0629 0.0485 0.0032 0.0029]
entropy correction =  -0.01964823542855248
cycle= 3 E= -12.2908732574472  delta_E= -1.21  |g|= 0.892  |ddm|= 1.82
HOMO:  -0.2601405997481478 LUMO:  -0.2569859621496424
Fermi energy:      -0.2585198505
[2.0000e+00 2.0000e+00 2.0000e+00 2.0000e+00 1.9992e+00 1.9513e+00
 1.9057e+00 1.7571e+00 1.1607e+00 8.4780e-01 1.5505e-01 1.3832e-01
 8.2004e-02 1.8022e-03 9.9533e-04 1.5971e-04]
entropy correction =  -0.027474836425506265
cycle= 4 E= -11.4908998778603  delta_E=  0.8  |g|= 1.31  |ddm|= 2.13
HOMO:  -0.2384612575162536 LUMO:  -0.23234531832651198
Fermi energy:      -0.2358612007
[2.0000e+00 2.0000e+00 2.0000e+00 2.0000e+00 1.9702e+00 1.9341e+00
 1.8462e+00 1.2872e+00 1.2543e+00 6.6222e-01 6.5296e-01 2.8385e-01
 7.3894e-02 2.1498e-02 1.2959e-02 6.3647e-04]
entropy correction =  -0.03739830437146813
cycle= 5 E= -12.7638805864535  delta_E= -1.27  |g|= 0.128  |ddm|= 2.07
HOMO:  -0.2176083775250546 LUMO:  -0.2149472539116436
Fermi energy:      -0.2162878056
[2.0000e+00 2.0000e+00 2.0000e+00 2.0000e+00 1.9568e+00 1.9416e+00
 1.7710e+00 1.5542e+00 1.1313e+00 8.6674e-01 3.9604e-01 2.4267e-01
 1.1038e-01 1.6908e-02 1.1677e-02 6.4353e-04]
entropy correction =  -0.036594874353015526
cycle= 6 E= -12.5578623559066  delta_E= 0.206  |g|= 0.53  |ddm|= 1.39
HOMO:  -0.21771722862428908 LUMO:  -0.21335960916848468
Fermi energy:      -0.2151624432
[2.0000e+00 2.0000e+00 2.0000e+00 2.0000e+00 1.9293e+00 1.7909e+00
 1.7459e+00 1.2637e+00 1.2501e+00 8.2164e-01 7.1832e-01 3.5073e-01
 9.4622e-02 1.8869e-02 1.5112e-02 9.0708e-04]
entropy correction =  -0.042748463965589824
cycle= 7 E= -12.7748001772268  delta_E= -0.217  |g|= 0.0539  |ddm|= 1.12
HOMO:  -0.21805873534394266 LUMO:  -0.2141140239870091
Fermi energy:      -0.2157453328
[2.0000e+00 2.0000e+00 2.0000e+00 2.0000e+00 1.9364e+00 1.8722e+00
 1.7063e+00 1.2360e+00 1.2273e+00 8.3830e-01 6.8534e-01 3.7623e-01
 8.9377e-02 1.6341e-02 1.5461e-02 7.7962e-04]
entropy correction =  -0.04212864246243807
cycle= 8 E= -12.7710421873427  delta_E= 0.00376  |g|= 0.0919  |ddm|= 0.325
HOMO:  -0.21828853048799515 LUMO:  -0.2132598364874027
Fermi energy:      -0.2158721923
[2.0000e+00 2.0000e+00 2.0000e+00 2.0000e+00 1.9331e+00 1.8196e+00
 1.7867e+00 1.2485e+00 1.2370e+00 7.4455e-01 7.3349e-01 3.7528e-01
 8.9663e-02 1.6191e-02 1.5142e-02 7.9839e-04]
entropy correction =  -0.041940663521099104
cycle= 9 E= -12.7757104570697  delta_E= -0.00467  |g|= 0.0535  |ddm|= 0.27
HOMO:  -0.21774882750406135 LUMO:  -0.2129212415414675
Fermi energy:      -0.2154046376
[2.0000e+00 2.0000e+00 2.0000e+00 2.0000e+00 1.9313e+00 1.8152e+00
 1.8010e+00 1.2352e+00 1.2302e+00 7.5664e-01 7.3212e-01 3.7622e-01
 9.0102e-02 1.5942e-02 1.5305e-02 8.1287e-04]
entropy correction =  -0.04195471003719225
cycle= 10 E= -12.7774096760187  delta_E= -0.0017  |g|= 0.0246  |ddm|= 0.121
HOMO:  -0.21802189386390022 LUMO:  -0.2131131385998554
Fermi energy:      -0.2156619575
[2.0000e+00 2.0000e+00 2.0000e+00 2.0000e+00 1.9311e+00 1.8076e+00
 1.8033e+00 1.2358e+00 1.2317e+00 7.5050e-01 7.4403e-01 3.7389e-01
 8.9970e-02 1.6017e-02 1.5305e-02 8.0862e-04]
entropy correction =  -0.04201214378812665
cycle= 11 E= -12.7776277721997  delta_E= -0.000218  |g|= 0.0187  |ddm|= 0.0586
HOMO:  -0.21833627281208404 LUMO:  -0.2134508402062614
Fermi energy:      -0.2159787385
[2.0000e+00 2.0000e+00 2.0000e+00 2.0000e+00 1.9311e+00 1.8042e+00
 1.8013e+00 1.2361e+00 1.2315e+00 7.5246e-01 7.4935e-01 3.7214e-01
 8.9577e-02 1.5720e-02 1.5666e-02 8.0208e-04]
entropy correction =  -0.04207203071910506
cycle= 12 E= -12.777877143636  delta_E= -0.000249  |g|= 0.00465  |ddm|= 0.037
HOMO:  -0.21839634357343307 LUMO:  -0.213510629062739
Fermi energy:      -0.2160320253
[2.0000e+00 2.0000e+00 2.0000e+00 2.0000e+00 1.9312e+00 1.8045e+00
 1.8013e+00 1.2347e+00 1.2321e+00 7.5307e-01 7.4906e-01 3.7239e-01
 8.9467e-02 1.5765e-02 1.5585e-02 7.9959e-04]
entropy correction =  -0.0420687864251917
cycle= 13 E= -12.777882992178  delta_E= -5.85e-06  |g|= 0.00401  |ddm|= 0.0136
HOMO:  -0.21849311339745867 LUMO:  -0.2136137553733834
Fermi energy:      -0.2161249316
[2.0000e+00 2.0000e+00 2.0000e+00 2.0000e+00 1.9313e+00 1.8037e+00
 1.8010e+00 1.2338e+00 1.2325e+00 7.5403e-01 7.4977e-01 3.7250e-01
 8.9316e-02 1.5819e-02 1.5494e-02 7.9588e-04]
entropy correction =  -0.04208341128888631
cycle= 14 E= -12.777892720125  delta_E= -9.73e-06  |g|= 0.00179  |ddm|= 0.0102
HOMO:  -0.2183974225329602 LUMO:  -0.2134789445990243
Fermi energy:      -0.2160276613
[2.0000e+00 2.0000e+00 2.0000e+00 2.0000e+00 1.9312e+00 1.8047e+00
 1.8031e+00 1.2341e+00 1.2326e+00 7.5051e-01 7.4971e-01 3.7257e-01
 8.9388e-02 1.5792e-02 1.5544e-02 8.0076e-04]
entropy correction =  -0.04204296804783736
cycle= 15 E= -12.7778958121176  delta_E= -3.09e-06  |g|= 0.000517  |ddm|= 0.00559
HOMO:  -0.2184033627018751 LUMO:  -0.21348699831409704
Fermi energy:      -0.2160312326
[2.0000e+00 2.0000e+00 2.0000e+00 2.0000e+00 1.9312e+00 1.8042e+00
 1.8024e+00 1.2342e+00 1.2329e+00 7.5093e-01 7.5021e-01 3.7261e-01
 8.9361e-02 1.5796e-02 1.5549e-02 8.0033e-04]
entropy correction =  -0.04205875597392018
cycle= 16 E= -12.777895982729  delta_E= -1.71e-07  |g|= 0.000153  |ddm|= 0.00133
HOMO:  -0.21840499534892374 LUMO:  -0.21349162367985852
Fermi energy:      -0.2160337485
[2.0000e+00 2.0000e+00 2.0000e+00 2.0000e+00 1.9312e+00 1.8044e+00
 1.8022e+00 1.2342e+00 1.2328e+00 7.5113e-01 7.5001e-01 3.7259e-01
 8.9360e-02 1.5794e-02 1.5550e-02 8.0026e-04]
entropy correction =  -0.04205776952598619
cycle= 17 E= -12.7778959105223  delta_E= 7.22e-08  |g|= 0.000334  |ddm|= 0.00106
HOMO:  -0.21840458594391515 LUMO:  -0.2134886523020398
Fermi energy:      -0.2160332176
[2.0000e+00 2.0000e+00 2.0000e+00 2.0000e+00 1.9312e+00 1.8043e+00
 1.8024e+00 1.2341e+00 1.2328e+00 7.5090e-01 7.5015e-01 3.7261e-01
 8.9355e-02 1.5791e-02 1.5549e-02 8.0018e-04]
entropy correction =  -0.0420564420200285
cycle= 18 E= -12.7778959970193  delta_E= -8.65e-08  |g|= 7.87e-05  |ddm|= 0.000805
HOMO:  -0.2184037596555525 LUMO:  -0.21348735808082575
Fermi energy:      -0.2160322233
[2.0000e+00 2.0000e+00 2.0000e+00 2.0000e+00 1.9312e+00 1.8042e+00
 1.8026e+00 1.2341e+00 1.2328e+00 7.5087e-01 7.5016e-01 3.7260e-01
 8.9356e-02 1.5796e-02 1.5546e-02 8.0025e-04]
entropy correction =  -0.04205618328867388
cycle= 19 E= -12.7778959689567  delta_E= 2.81e-08  |g|= 0.000211  |ddm|= 0.00051
HOMO:  -0.21840493166215572 LUMO:  -0.21348888422842247
Fermi energy:      -0.2160333610
[2.0000e+00 2.0000e+00 2.0000e+00 2.0000e+00 1.9312e+00 1.8042e+00
 1.8025e+00 1.2341e+00 1.2328e+00 7.5091e-01 7.5018e-01 3.7260e-01
 8.9356e-02 1.5794e-02 1.5548e-02 8.0021e-04]
entropy correction =  -0.04205691555727963
cycle= 20 E= -12.7778960023661  delta_E= -3.34e-08  |g|= 1.83e-05  |ddm|= 0.000385
HOMO:  -0.21840571578190604 LUMO:  -0.21348961717362483
Fermi energy:      -0.2160341808
[2.0000e+00 2.0000e+00 2.0000e+00 2.0000e+00 1.9312e+00 1.8042e+00
 1.8025e+00 1.2341e+00 1.2328e+00 7.5090e-01 7.5021e-01 3.7259e-01
 8.9355e-02 1.5793e-02 1.5548e-02 8.0018e-04]
entropy correction =  -0.04205716976779166
cycle= 21 E= -12.7778960012257  delta_E= 1.14e-09  |g|= 4.22e-05  |ddm|= 9.95e-05
HOMO:  -0.2184051938061117 LUMO:  -0.21348909604446567
Fermi energy:      -0.2160336515
[2.0000e+00 2.0000e+00 2.0000e+00 2.0000e+00 1.9312e+00 1.8043e+00
 1.8025e+00 1.2341e+00 1.2328e+00 7.5090e-01 7.5018e-01 3.7260e-01
 8.9355e-02 1.5794e-02 1.5547e-02 8.0020e-04]
entropy correction =  -0.0420566641370865
cycle= 22 E= -12.7778960023752  delta_E= -1.15e-09  |g|= 1.75e-05  |ddm|= 8.73e-05
HOMO:  -0.21840530808495368 LUMO:  -0.21348930647061828
Fermi energy:      -0.2160337370
[2.0000e+00 2.0000e+00 2.0000e+00 2.0000e+00 1.9312e+00 1.8043e+00
 1.8025e+00 1.2341e+00 1.2328e+00 7.5091e-01 7.5017e-01 3.7260e-01
 8.9355e-02 1.5794e-02 1.5548e-02 8.0020e-04]
entropy correction =  -0.04205677175222137
cycle= 23 E= -12.7778960025363  delta_E= -1.61e-10  |g|= 9.75e-06  |ddm|= 4.42e-05
HOMO:  -0.2184049490683232 LUMO:  -0.2134884936007806
Fermi energy:      -0.2160334057
[2.0000e+00 2.0000e+00 2.0000e+00 2.0000e+00 1.9312e+00 1.8042e+00
 1.8025e+00 1.2341e+00 1.2328e+00 7.5086e-01 7.5021e-01 3.7260e-01
 8.9355e-02 1.5794e-02 1.5548e-02 8.0021e-04]
entropy correction =  -0.04205666703245841
Extra cycle  E= -12.7778959994733  delta_E= 3.06e-09  |g|= 6.3e-05  |ddm|= 0.00014
degenerate subspace detected:
nsub = 3
subspace 1:
5, 6, 
subspace 2:
8, 9, 
subspace 3:
11, 12, 

 Adding contributions from fluctuation of occupation numbers.
degenerate subspace detected:
nsub = 4
subspace 1:
6, 7, 
subspace 2:
8, 9, 
subspace 3:
10, 11, 
subspace 4:
14, 15, 

 Adding contributions from fluctuation of occupation numbers.
entropy correction =  -0.04205666703245841
2-norm (grad),       max(grad):
0.04847954968658127 ,  0.003302366720138346
time of hessian construction : 37.630  (cpu),  1.625  (wall) 
time of hessian construction : 25.940  (cpu),  0.651  (wall) 
f =  0.001175133368906851
|umat| =  3.2509218704803007
rks_ao.ne_frozen =  0
Set gradient conv threshold to 3.16228e-05
Initial guess from hcore.
HOMO:  -3.6323027440159033 LUMO:  -3.580800801038695
Fermi energy:      -3.6065517725
[2.     2.     2.     2.     2.     2.     2.     2.     1.9885 0.0115]
tot grids = 190200
init E= -25.1136102334348
HOMO:  -0.43310172980487777 LUMO:  -0.38929894537067494
Fermi energy:      -0.4102500813
[2.     2.     2.     2.     2.     2.     2.     1.9906 1.9795 0.0298]
entropy correction =  -0.0016456834449310234
cycle= 1 E= -26.6521262945168  delta_E= -1.54  |g|=  2.3  |ddm|= 35.7
HOMO:  -1.051364626334566 LUMO:  -0.9999165492143043
Fermi energy:      -1.0256405654
[2.     2.     2.     2.     2.     2.     2.     2.     1.9884 0.0116]
entropy correction =  -0.0007126289034185322
cycle= 2 E= -27.5735448912641  delta_E= -0.921  |g|= 1.56  |ddm|= 17.8
HOMO:  -0.7204965716876647 LUMO:  -0.7079067676824659
Fermi energy:      -0.7141892851
[2.0000e+00 2.0000e+00 2.0000e+00 2.0000e+00 2.0000e+00 2.0000e+00
 2.0000e+00 1.9980e+00 1.5586e+00 4.4315e-01 2.8628e-04]
entropy correction =  -0.010660114021109677
cycle= 3 E= -28.288955892273  delta_E= -0.715  |g|= 0.553  |ddm|= 10.2
HOMO:  -0.7063652484721212 LUMO:  -0.6980570942745017
Fermi energy:      -0.7021467090
[2.     2.     2.     2.     2.     2.     2.     1.989  1.3985 0.6124]
entropy correction =  -0.012619683372020563
cycle= 4 E= -28.3669838485836  delta_E= -0.078  |g|= 0.279  |ddm|= 2.59
HOMO:  -0.7266764674377413 LUMO:  -0.7236036239848829
Fermi energy:      -0.7251305275
[2.     2.     2.     2.     2.     2.     2.     1.9981 1.1534 0.8485]
entropy correction =  -0.01370950486328785
cycle= 5 E= -28.3717833231462  delta_E= -0.0048  |g|= 0.247  |ddm|= 1.91
HOMO:  -0.7380376845294512 LUMO:  -0.7270262369700856
Fermi energy:      -0.7321643874
[2.     2.     2.     2.     2.     2.     2.     1.9449 1.528  0.5271]
entropy correction =  -0.01249478596077515
cycle= 6 E= -28.3984452804523  delta_E= -0.0267  |g|= 0.0618  |ddm|= 1.17
HOMO:  -0.7369817249516815 LUMO:  -0.7270858617771663
Fermi energy:      -0.7316934716
[2.     2.     2.     2.     2.     2.     2.     1.9462 1.4845 0.5693]
entropy correction =  -0.012919554651415045
cycle= 7 E= -28.3999818857984  delta_E= -0.00154  |g|= 0.0113  |ddm|= 0.297
HOMO:  -0.7368772689535382 LUMO:  -0.7276408930226174
Fermi energy:      -0.7319089813
[2.     2.     2.     2.     2.     2.     2.     1.943  1.4596 0.5973]
entropy correction =  -0.013228474938586357
cycle= 8 E= -28.4000416988677  delta_E= -5.98e-05  |g|= 0.00402  |ddm|= 0.0899
HOMO:  -0.7371685521848846 LUMO:  -0.7275543257804179
Fermi energy:      -0.7320079503
[2.     2.     2.     2.     2.     2.     2.     1.9434 1.4747 0.5819]
entropy correction =  -0.013078024221402475
cycle= 9 E= -28.4000526769386  delta_E= -1.1e-05  |g|= 0.000988  |ddm|= 0.0357
HOMO:  -0.7372261827264611 LUMO:  -0.7276074951378202
Fermi energy:      -0.7320643437
[2.     2.     2.     2.     2.     2.     2.     1.9436 1.4747 0.5817]
entropy correction =  -0.013073308586263052
cycle= 10 E= -28.4000533066313  delta_E= -6.3e-07  |g|= 0.000304  |ddm|= 0.0112
HOMO:  -0.7371999027172313 LUMO:  -0.7275915745054179
Fermi energy:      -0.7320431963
[2.     2.     2.     2.     2.     2.     2.     1.9435 1.4744 0.5821]
entropy correction =  -0.013077884321505613
cycle= 11 E= -28.4000533733929  delta_E= -6.68e-08  |g|= 3.46e-05  |ddm|= 0.00303
HOMO:  -0.7371973813645667 LUMO:  -0.7275881538434167
Fermi energy:      -0.7320403447
[2.     2.     2.     2.     2.     2.     2.     1.9436 1.4744 0.582 ]
entropy correction =  -0.01307716524812697
cycle= 12 E= -28.4000533738787  delta_E= -4.86e-10  |g|= 1.17e-05  |ddm|= 0.000233
HOMO:  -0.737198269990258 LUMO:  -0.7275896067302405
Fermi energy:      -0.7320414045
[2.     2.     2.     2.     2.     2.     2.     1.9435 1.4744 0.5821]
entropy correction =  -0.013077717372945585
Extra cycle  E= -28.4000533731454  delta_E= 7.33e-10  |g|= 3.79e-05  |ddm|= 0.000261
entropy correction =  -0.013077717372945585
rks_ao.ne_frozen =  0
Set gradient conv threshold to 3.16228e-05
Initial guess from hcore.
HOMO:  -2.7637522114166075 LUMO:  -2.7273073652706628
Fermi energy:      -2.7457937077
[2.0000e+00 2.0000e+00 2.0000e+00 2.0000e+00 2.0000e+00 2.0000e+00
 2.0000e+00 2.0000e+00 1.9464e+00 4.8383e-02 4.2257e-03 1.0189e-03]
tot grids = 190200
init E= -26.7552569345265
HOMO:  -0.4058864074604316 LUMO:  -0.3816832534148048
Fermi energy:      -0.3937827148
[2.     2.     2.     2.     2.     2.     2.     1.9999 1.8368 0.1633]
entropy correction =  -0.005661825603496207
cycle= 1 E= -27.7672204352111  delta_E= -1.01  |g|=  1.6  |ddm|= 17.8
HOMO:  -0.6008515122767156 LUMO:  -0.5717278347155137
Fermi energy:      -0.5862898494
[2.     2.     2.     2.     2.     2.     2.     2.     1.8969 0.1031]
entropy correction =  -0.004061328304536154
cycle= 2 E= -26.8517283550579  delta_E= 0.915  |g|= 2.31  |ddm|= 11.2
HOMO:  -0.5354214433080856 LUMO:  -0.501878371608738
Fermi energy:      -0.5186498093
[2.     2.     2.     2.     2.     2.     2.     2.     1.9325 0.0675]
entropy correction =  -0.0029513861922827607
cycle= 3 E= -28.5138708246414  delta_E= -1.66  |g|= 0.347  |ddm|= 7.72
HOMO:  -0.5294740738200405 LUMO:  -0.49609034060974533
Fermi energy:      -0.5127818564
[2.     2.     2.     2.     2.     2.     2.     2.     1.9314 0.0686]
entropy correction =  -0.0029868675064162937
cycle= 4 E= -28.4655548616772  delta_E= 0.0483  |g|= 0.464  |ddm|=  4.2
HOMO:  -0.5228526817151079 LUMO:  -0.5021088345476297
Fermi energy:      -0.5124803128
[2.     2.     2.     2.     2.     2.     2.     2.     1.7768 0.2232]
entropy correction =  -0.00699954570123342
cycle= 5 E= -28.5679792889994  delta_E= -0.102  |g|= 0.0859  |ddm|= 2.31
HOMO:  -0.5242148404805693 LUMO:  -0.5066331998691176
Fermi energy:      -0.5154237242
[2.     2.     2.     2.     2.     2.     2.     2.     1.706  0.2941]
entropy correction =  -0.008351916836796345
cycle= 6 E= -28.5697807224665  delta_E= -0.0018  |g|= 0.0804  |ddm|= 0.655
HOMO:  -0.5262100211300312 LUMO:  -0.5077647951881802
Fermi energy:      -0.5169870486
[2.     2.     2.     2.     2.     2.     2.     2.     1.727  0.2731]
entropy correction =  -0.007973850632856681
cycle= 7 E= -28.5720627721846  delta_E= -0.00228  |g|= 0.00954  |ddm|= 0.304
HOMO:  -0.5259421920326776 LUMO:  -0.5069493680984034
Fermi energy:      -0.5164453824
[2.     2.     2.     2.     2.     2.     2.     2.     1.7396 0.2604]
entropy correction =  -0.00773709733504552
cycle= 8 E= -28.5720923175462  delta_E= -2.95e-05  |g|= 0.00529  |ddm|= 0.0704
HOMO:  -0.5257375312322528 LUMO:  -0.5069931033582128
Fermi energy:      -0.5163649415
[2.     2.     2.     2.     2.     2.     2.     2.     1.734  0.2661]
entropy correction =  -0.00784414874028324
cycle= 9 E= -28.5721077166098  delta_E= -1.54e-05  |g|= 0.00081  |ddm|= 0.0316
HOMO:  -0.5257900200125444 LUMO:  -0.5070317843893335
Fermi energy:      -0.5164105232
[2.     2.     2.     2.     2.     2.     2.     2.     1.7343 0.2658]
entropy correction =  -0.00783819378111142
cycle= 10 E= -28.5721079893135  delta_E= -2.73e-07  |g|= 0.000316  |ddm|= 0.00455
HOMO:  -0.5257781403016788 LUMO:  -0.5070357874678666
Fermi energy:      -0.5164065866
[2.     2.     2.     2.     2.     2.     2.     2.     1.7339 0.2661]
entropy correction =  -0.007845054040824442
cycle= 11 E= -28.5721080251275  delta_E= -3.58e-08  |g|= 8.71e-05  |ddm|= 0.00137
HOMO:  -0.525784978800497 LUMO:  -0.5070408446132088
Fermi energy:      -0.5164125341
[2.     2.     2.     2.     2.     2.     2.     2.     1.734  0.2661]
entropy correction =  -0.007844285089505831
cycle= 12 E= -28.5721080295927  delta_E= -4.47e-09  |g|= 6.45e-06  |ddm|= 0.000487
HOMO:  -0.5257848188695515 LUMO:  -0.5070409985379133
Fermi energy:      -0.5164125311
[2.     2.     2.     2.     2.     2.     2.     2.     1.7339 0.2661]
entropy correction =  -0.007844420702959884
cycle= 13 E= -28.5721080296125  delta_E= -1.98e-11  |g|= 2.16e-06  |ddm|= 5.54e-05
HOMO:  -0.5257850324152905 LUMO:  -0.5070409152549344
Fermi energy:      -0.5164125962
[2.     2.     2.     2.     2.     2.     2.     2.     1.734  0.2661]
entropy correction =  -0.00784429241768342
Extra cycle  E= -28.5721080295789  delta_E= 3.35e-11  |g|= 8.8e-06  |ddm|= 6.16e-05
 Adding contributions from fluctuation of occupation numbers.
 Adding contributions from fluctuation of occupation numbers.
entropy correction =  -0.00784429241768342
2-norm (grad),       max(grad):
234.77906471033467 ,  52.54911194774016
time of hessian construction : 14.060  (cpu),  0.353  (wall) 
time of hessian construction : 13.160  (cpu),  0.330  (wall) 
f =  27560.604613129755
|umat| =  2.7562086592801562
rks_ao.ne_frozen =  0
Set gradient conv threshold to 3.16228e-05
Initial guess from hcore.
HOMO:  -3.505947683970422 LUMO:  -3.312360105072673
Fermi energy:      -3.4073950933
[2. 2. 2. 2. 2. 2. 2. 2. 2.]
tot grids = 190200
init E= -10.1226742483848
HOMO:  -0.06808231800378323 LUMO:  -0.06764673099278237
Fermi energy:      -0.0725538172
[2.     2.     2.     2.     2.     2.     1.9951 1.9522 0.5804 0.5452
 0.4744 0.4526]
entropy correction =  -0.024009755141881906
cycle= 1 E= -10.2330006641417  delta_E= -0.11  |g|= 2.75  |ddm|= 7.87
HOMO:  -0.7782268987300264 LUMO:  -0.6487725558513094
Fermi energy:      -0.7121929714
[2. 2. 2. 2. 2. 2. 2. 2. 2.]
entropy correction =  -1.0279875246322262e-06
cycle= 2 E= -11.544885496276  delta_E= -1.31  |g|= 2.03  |ddm|= 6.47
HOMO:  -0.45049749258092797 LUMO:  -0.4176568865752193
Fermi energy:      -0.4347737079
[2.0000e+00 2.0000e+00 2.0000e+00 2.0000e+00 1.9997e+00 1.9970e+00
 1.9970e+00 1.9186e+00 1.9174e+00 6.3146e-02 6.1936e-02 2.7570e-02
 1.7053e-02 6.5562e-04]
entropy correction =  -0.007695159966913591
cycle= 3 E= -13.2354576709284  delta_E= -1.69  |g|= 0.545  |ddm|= 3.79
HOMO:  -0.36602165826592603 LUMO:  -0.36538128240968654
Fermi energy:      -0.3682235154
[2.0000e+00 1.9985e+00 1.9948e+00 1.9941e+00 1.9768e+00 1.9756e+00
 1.8863e+00 1.2661e+00 7.8330e-01 7.2319e-01 6.0073e-01 5.5716e-01
 2.4322e-01 2.0042e-04]
entropy correction =  -0.03946584182904507
cycle= 4 E= -13.367816188379  delta_E= -0.132  |g|= 0.207  |ddm|= 1.69
HOMO:  -0.3689036869130162 LUMO:  -0.3633981911688344
Fermi energy:      -0.3679573272
[2.0000e+00 1.9998e+00 1.9985e+00 1.9982e+00 1.9831e+00 1.9774e+00
 1.9478e+00 1.4316e+00 1.0944e+00 5.7325e-01 4.6926e-01 4.4754e-01
 7.8849e-02 1.6701e-04]
entropy correction =  -0.03373566222180499
cycle= 5 E= -13.0094655025015  delta_E= 0.358  |g|= 0.752  |ddm|= 1.39
HOMO:  -0.3735664009240211 LUMO:  -0.36933114520294846
Fermi energy:      -0.3720659149
[2.0000e+00 1.9998e+00 1.9964e+00 1.9940e+00 1.9731e+00 1.9674e+00
 1.9615e+00 1.1705e+00 1.1489e+00 7.3314e-01 4.9407e-01 4.6967e-01
 9.1334e-02 2.0462e-04]
entropy correction =  -0.035927664818851617
cycle= 6 E= -13.3894023876065  delta_E= -0.38  |g|= 0.135  |ddm|= 1.05
HOMO:  -0.3722941594709111 LUMO:  -0.3712854385957127
Fermi energy:      -0.3716562045
[2.0000e+00 1.9993e+00 1.9956e+00 1.9852e+00 1.9771e+00 1.9498e+00
 1.9272e+00 1.2303e+00 1.0637e+00 9.6294e-01 5.4792e-01 2.9184e-01
 6.8825e-02 2.2320e-04]
entropy correction =  -0.03602083369896305
cycle= 7 E= -13.3740721102106  delta_E= 0.0153  |g|= 0.167  |ddm|= 0.593
HOMO:  -0.3709094000241873 LUMO:  -0.36809187269253113
Fermi energy:      -0.3702729108
[2.0000e+00 1.9989e+00 1.9907e+00 1.9887e+00 1.9613e+00 1.9552e+00
 1.9386e+00 1.1706e+00 1.0636e+00 7.8529e-01 5.4043e-01 5.2257e-01
 8.3835e-02 2.4025e-04]
entropy correction =  -0.03781553484425823
cycle= 8 E= -13.3991355209419  delta_E= -0.0251  |g|= 0.0763  |ddm|= 0.499
HOMO:  -0.369144390798838 LUMO:  -0.36691291598040204
Fermi energy:      -0.3686792897
[2.0000e+00 1.9988e+00 1.9896e+00 1.9868e+00 1.9640e+00 1.9549e+00
 1.9396e+00 1.1014e+00 1.0465e+00 8.2518e-01 5.5849e-01 5.4742e-01
 8.7209e-02 2.3596e-04]
entropy correction =  -0.03828343968197681
cycle= 9 E= -13.3947908772338  delta_E= 0.00434  |g|= 0.111  |ddm|= 0.268
HOMO:  -0.36523685540989714 LUMO:  -0.3646858181496299
Fermi energy:      -0.3658178702
[2.0000e+00 1.9987e+00 1.9864e+00 1.9818e+00 1.9636e+00 1.9631e+00
 1.9374e+00 1.0381e+00 9.4196e-01 8.8728e-01 6.1699e-01 5.8923e-01
 9.5186e-02 2.2849e-04]
entropy correction =  -0.03907341021018782
cycle= 10 E= -13.4015223731109  delta_E= -0.00673  |g|= 0.0515  |ddm|= 0.242
HOMO:  -0.36496295947709007 LUMO:  -0.3644944400627867
Fermi energy:      -0.3653926876
[2.0000e+00 1.9987e+00 1.9858e+00 1.9839e+00 1.9639e+00 1.9618e+00
 1.9392e+00 9.9605e-01 9.5705e-01 9.1042e-01 6.0786e-01 5.9568e-01
 9.9401e-02 2.2634e-04]
entropy correction =  -0.03911801301779489
cycle= 11 E= -13.4015468327945  delta_E= -2.45e-05  |g|= 0.0565  |ddm|= 0.165
HOMO:  -0.36514367789590746 LUMO:  -0.36439704932949835
Fermi energy:      -0.3654767818
[2.0000e+00 1.9988e+00 1.9863e+00 1.9841e+00 1.9637e+00 1.9629e+00
 1.9409e+00 9.9689e-01 9.6670e-01 8.9244e-01 6.1004e-01 5.9820e-01
 9.8804e-02 2.2852e-04]
entropy correction =  -0.039047945430259266
cycle= 12 E= -13.4035229791079  delta_E= -0.00198  |g|= 0.0162  |ddm|= 0.122
HOMO:  -0.3664543805916538 LUMO:  -0.36513475706718596
Fermi energy:      -0.3663944160
[2.0000e+00 1.9988e+00 1.9876e+00 1.9856e+00 1.9620e+00 1.9616e+00
 1.9393e+00 1.0104e+00 1.0060e+00 8.7470e-01 5.8924e-01 5.8743e-01
 9.7149e-02 2.3308e-04]
entropy correction =  -0.038892375147679056
cycle= 13 E= -13.4037745697556  delta_E= -0.000252  |g|= 0.00255  |ddm|= 0.0494
HOMO:  -0.3665456196416189 LUMO:  -0.36520171569419585
Fermi energy:      -0.3664848928
[2.0000e+00 1.9988e+00 1.9873e+00 1.9858e+00 1.9626e+00 1.9612e+00
 1.9398e+00 1.0120e+00 1.0061e+00 8.7238e-01 5.9031e-01 5.8688e-01
 9.6689e-02 2.3250e-04]
entropy correction =  -0.03887490125542255
cycle= 14 E= -13.4037591892713  delta_E= 1.54e-05  |g|= 0.0045  |ddm|= 0.0182
HOMO:  -0.3665658142832005 LUMO:  -0.3651975281231738
Fermi energy:      -0.3664935446
[2.0000e+00 1.9988e+00 1.9874e+00 1.9855e+00 1.9622e+00 1.9618e+00
 1.9403e+00 1.0101e+00 1.0072e+00 8.7112e-01 5.9008e-01 5.8854e-01
 9.6540e-02 2.3174e-04]
entropy correction =  -0.03886491290977932
cycle= 15 E= -13.4037789354468  delta_E= -1.97e-05  |g|= 0.00139  |ddm|= 0.0149
HOMO:  -0.3665925844943657 LUMO:  -0.36522228786075905
Fermi energy:      -0.3665102159
[2.0000e+00 1.9988e+00 1.9874e+00 1.9855e+00 1.9620e+00 1.9618e+00
 1.9398e+00 1.0095e+00 1.0082e+00 8.7191e-01 5.8930e-01 5.8884e-01
 9.6635e-02 2.3247e-04]
entropy correction =  -0.038879566684482815
cycle= 16 E= -13.4037801172552  delta_E= -1.18e-06  |g|= 0.00122  |ddm|= 0.00511
HOMO:  -0.3665936004877607 LUMO:  -0.3652305624808187
Fermi energy:      -0.3665157022
[2.0000e+00 1.9988e+00 1.9874e+00 1.9855e+00 1.9622e+00 1.9615e+00
 1.9396e+00 1.0099e+00 1.0078e+00 8.7219e-01 5.9002e-01 5.8812e-01
 9.6651e-02 2.3274e-04]
entropy correction =  -0.03888570558567532
cycle= 17 E= -13.4037781423978  delta_E= 1.97e-06  |g|= 0.0018  |ddm|= 0.00604
HOMO:  -0.36660197752586293 LUMO:  -0.36522662168524167
Fermi energy:      -0.3665151301
[2.0000e+00 1.9988e+00 1.9874e+00 1.9855e+00 1.9620e+00 1.9618e+00
 1.9398e+00 1.0092e+00 1.0087e+00 8.7186e-01 5.8931e-01 5.8877e-01
 9.6626e-02 2.3250e-04]
entropy correction =  -0.03887948635078078
cycle= 18 E= -13.4037792229156  delta_E= -1.08e-06  |g|= 0.00163  |ddm|= 0.00621
HOMO:  -0.36658111459136145 LUMO:  -0.3652168294630103
Fermi energy:      -0.3665021449
[2.0000e+00 1.9988e+00 1.9874e+00 1.9855e+00 1.9621e+00 1.9618e+00
 1.9398e+00 1.0092e+00 1.0079e+00 8.7217e-01 5.8964e-01 5.8895e-01
 9.6654e-02 2.3252e-04]
entropy correction =  -0.03888396929794647
cycle= 19 E= -13.4037812327908  delta_E= -2.01e-06  |g|= 0.000246  |ddm|= 0.00305
HOMO:  -0.36656387361496084 LUMO:  -0.3652047094395059
Fermi energy:      -0.3664848400
[2.0000e+00 1.9988e+00 1.9873e+00 1.9855e+00 1.9621e+00 1.9618e+00
 1.9397e+00 1.0082e+00 1.0079e+00 8.7268e-01 5.8997e-01 5.8911e-01
 9.6715e-02 2.3254e-04]
entropy correction =  -0.038889216545570766
cycle= 20 E= -13.4037792001536  delta_E= 2.03e-06  |g|= 0.00173  |ddm|= 0.00324
HOMO:  -0.3665680093946478 LUMO:  -0.3652072597966639
Fermi energy:      -0.3664885518
[2.0000e+00 1.9988e+00 1.9874e+00 1.9855e+00 1.9621e+00 1.9618e+00
 1.9398e+00 1.0084e+00 1.0079e+00 8.7257e-01 5.8993e-01 5.8893e-01
 9.6713e-02 2.3247e-04]
entropy correction =  -0.03888650214796152
cycle= 21 E= -13.4037811488434  delta_E= -1.95e-06  |g|= 0.000402  |ddm|= 0.00299
HOMO:  -0.3665685912278226 LUMO:  -0.36520917299233996
Fermi energy:      -0.3664906514
[2.0000e+00 1.9988e+00 1.9874e+00 1.9855e+00 1.9621e+00 1.9618e+00
 1.9398e+00 1.0087e+00 1.0078e+00 8.7255e-01 5.8980e-01 5.8898e-01
 9.6712e-02 2.3249e-04]
entropy correction =  -0.03888648362198079
cycle= 22 E= -13.4037812895943  delta_E= -1.41e-07  |g|= 4.24e-05  |ddm|= 0.000939
HOMO:  -0.36657304410321656 LUMO:  -0.3652116152810717
Fermi energy:      -0.3664938792
[2.0000e+00 1.9988e+00 1.9874e+00 1.9855e+00 1.9621e+00 1.9618e+00
 1.9398e+00 1.0087e+00 1.0079e+00 8.7247e-01 5.8974e-01 5.8894e-01
 9.6704e-02 2.3250e-04]
entropy correction =  -0.03888564335688582
cycle= 23 E= -13.4037812909424  delta_E= -1.35e-09  |g|= 2.34e-05  |ddm|= 0.000132
HOMO:  -0.36657292616026826 LUMO:  -0.3652113677242115
Fermi energy:      -0.3664938992
[2.0000e+00 1.9988e+00 1.9874e+00 1.9855e+00 1.9621e+00 1.9618e+00
 1.9398e+00 1.0087e+00 1.0079e+00 8.7245e-01 5.8975e-01 5.8894e-01
 9.6699e-02 2.3249e-04]
entropy correction =  -0.038885465819083656
cycle= 24 E= -13.4037812907735  delta_E= 1.69e-10  |g|= 2.54e-05  |ddm|= 0.000109
HOMO:  -0.36657574484081307 LUMO:  -0.3652126255723527
Fermi energy:      -0.3664954230
[2.0000e+00 1.9988e+00 1.9874e+00 1.9855e+00 1.9621e+00 1.9618e+00
 1.9398e+00 1.0087e+00 1.0080e+00 8.7242e-01 5.8966e-01 5.8898e-01
 9.6697e-02 2.3250e-04]
entropy correction =  -0.03888525665674259
Extra cycle  E= -13.4037812690109  delta_E= 2.18e-08  |g|= 0.000148  |ddm|= 0.000467
entropy correction =  -0.03888525665674259
rks_ao.ne_frozen =  0
Set gradient conv threshold to 3.16228e-05
Initial guess from hcore.
HOMO:  -2.57085698083004 LUMO:  -2.570362216902689
Fermi energy:      -2.5712265156
[2.0000e+00 2.0000e+00 2.0000e+00 2.0000e+00 2.0000e+00 2.0000e+00
 2.0000e+00 1.9952e+00 9.6306e-01 9.1378e-01 6.0703e-02 5.8729e-02
 3.9970e-03 3.7551e-03 7.4027e-04]
tot grids = 190200
init E= -9.69352618625321
HOMO:  0.019852953835120795 LUMO:  0.022745506091763183
Fermi energy:       0.0196690460
[2.     2.     2.     2.     2.     2.     1.9949 1.3616 0.9816 0.7017
 0.449  0.2223 0.1119 0.084  0.0438 0.0357 0.0084 0.0027 0.0024]
entropy correction =  -0.03497749099996203
cycle= 1 E= -10.9844135972835  delta_E= -1.29  |g|= 2.09  |ddm|= 9.58
HOMO:  -0.4504739998991154 LUMO:  -0.4395582117935685
Fermi energy:      -0.4449871991
[2.     2.     2.     2.     2.     2.     1.9994 1.5768 1.4995 0.5048
 0.2028 0.18   0.0342 0.0023]
entropy correction =  -0.023733866692312415
cycle= 2 E= -11.0813435975505  delta_E= -0.0969  |g|= 2.12  |ddm|=  9.4
HOMO:  -0.2976882799152585 LUMO:  -0.2838218622750348
Fermi energy:      -0.2895411868
[2.     2.     2.     2.     1.9966 1.9861 1.9779 1.6979 1.6722 0.4832
 0.0685 0.0629 0.0486 0.0032 0.0029]
entropy correction =  -0.0196488335664764
cycle= 3 E= -12.2909420458444  delta_E= -1.21  |g|= 0.892  |ddm|= 1.82
HOMO:  -0.26013170809448294 LUMO:  -0.25697716094606915
Fermi energy:      -0.2585116297
[2.0000e+00 2.0000e+00 2.0000e+00 2.0000e+00 1.9992e+00 1.9513e+00
 1.9056e+00 1.7570e+00 1.1606e+00 8.4775e-01 1.5515e-01 1.3845e-01
 8.2017e-02 1.8017e-03 9.9553e-04 1.5972e-04]
entropy correction =  -0.027479206173531036
cycle= 4 E= -11.4909387662154  delta_E=  0.8  |g|= 1.31  |ddm|= 2.13
HOMO:  -0.23845912925597026 LUMO:  -0.23234362257418256
Fermi energy:      -0.2358594364
[2.0000e+00 2.0000e+00 2.0000e+00 2.0000e+00 1.9702e+00 1.9341e+00
 1.8462e+00 1.2872e+00 1.2543e+00 6.6222e-01 6.5298e-01 2.8386e-01
 7.3899e-02 2.1497e-02 1.2960e-02 6.3653e-04]
entropy correction =  -0.03739845337082912
cycle= 5 E= -12.7638867090346  delta_E= -1.27  |g|= 0.128  |ddm|= 2.07
HOMO:  -0.21760530548105483 LUMO:  -0.2149481310629752
Fermi energy:      -0.2162863255
[2.0000e+00 2.0000e+00 2.0000e+00 2.0000e+00 1.9568e+00 1.9416e+00
 1.7710e+00 1.5542e+00 1.1311e+00 8.6697e-01 3.9605e-01 2.4268e-01
 1.1035e-01 1.6913e-02 1.1679e-02 6.4360e-04]
entropy correction =  -0.03659612066220166
cycle= 6 E= -12.5579181635007  delta_E= 0.206  |g|= 0.53  |ddm|= 1.39
HOMO:  -0.21771688489193405 LUMO:  -0.2133589835070321
Fermi energy:      -0.2151620398
[2.0000e+00 2.0000e+00 2.0000e+00 2.0000e+00 1.9293e+00 1.7908e+00
 1.7459e+00 1.2637e+00 1.2501e+00 8.2162e-01 7.1835e-01 3.5073e-01
 9.4621e-02 1.8869e-02 1.5111e-02 9.0706e-04]
entropy correction =  -0.04274885500140938
cycle= 7 E= -12.7747979571786  delta_E= -0.217  |g|= 0.0539  |ddm|= 1.12
HOMO:  -0.21805925471400936 LUMO:  -0.2141138955094883
Fermi energy:      -0.2157457794
[2.0000e+00 2.0000e+00 2.0000e+00 2.0000e+00 1.9364e+00 1.8721e+00
 1.7064e+00 1.2359e+00 1.2273e+00 8.3824e-01 6.8540e-01 3.7622e-01
 8.9381e-02 1.6340e-02 1.5461e-02 7.7968e-04]
entropy correction =  -0.04212903198734586
cycle= 8 E= -12.7710470695762  delta_E= 0.00375  |g|= 0.0919  |ddm|= 0.325
HOMO:  -0.21828846751284114 LUMO:  -0.21326008734181717
Fermi energy:      -0.2158721242
[2.0000e+00 2.0000e+00 2.0000e+00 2.0000e+00 1.9331e+00 1.8196e+00
 1.7867e+00 1.2485e+00 1.2370e+00 7.4458e-01 7.3349e-01 3.7527e-01
 8.9663e-02 1.6190e-02 1.5143e-02 7.9840e-04]
entropy correction =  -0.04194100531816277
cycle= 9 E= -12.775711134593  delta_E= -0.00466  |g|= 0.0535  |ddm|= 0.27
HOMO:  -0.2177482987807034 LUMO:  -0.21292031028633518
Fermi energy:      -0.2154040538
[2.0000e+00 2.0000e+00 2.0000e+00 2.0000e+00 1.9313e+00 1.8152e+00
 1.8010e+00 1.2352e+00 1.2302e+00 7.5661e-01 7.3214e-01 3.7622e-01
 9.0103e-02 1.5942e-02 1.5305e-02 8.1289e-04]
entropy correction =  -0.041954617280869966
cycle= 10 E= -12.7774095314632  delta_E= -0.0017  |g|= 0.0246  |ddm|= 0.121
HOMO:  -0.21802179052026763 LUMO:  -0.2131127666428035
Fermi energy:      -0.2156618125
[2.0000e+00 2.0000e+00 2.0000e+00 2.0000e+00 1.9311e+00 1.8076e+00
 1.8033e+00 1.2358e+00 1.2317e+00 7.5048e-01 7.4405e-01 3.7389e-01
 8.9970e-02 1.6017e-02 1.5305e-02 8.0863e-04]
entropy correction =  -0.042012101763703485
cycle= 11 E= -12.7776273423259  delta_E= -0.000218  |g|= 0.0187  |ddm|= 0.0587
HOMO:  -0.21833630565654177 LUMO:  -0.21345066111775074
Fermi energy:      -0.2159787337
[2.0000e+00 2.0000e+00 2.0000e+00 2.0000e+00 1.9311e+00 1.8042e+00
 1.8013e+00 1.2361e+00 1.2315e+00 7.5244e-01 7.4937e-01 3.7214e-01
 8.9577e-02 1.5720e-02 1.5666e-02 8.0207e-04]
entropy correction =  -0.04207211423776414
cycle= 12 E= -12.7778770318083  delta_E= -0.00025  |g|= 0.00468  |ddm|= 0.037
HOMO:  -0.2183962052969673 LUMO:  -0.21351065739345307
Fermi energy:      -0.2160319313
[2.0000e+00 2.0000e+00 2.0000e+00 2.0000e+00 1.9312e+00 1.8045e+00
 1.8013e+00 1.2347e+00 1.2321e+00 7.5308e-01 7.4905e-01 3.7239e-01
 8.9468e-02 1.5764e-02 1.5585e-02 7.9960e-04]
entropy correction =  -0.042068791386762845
cycle= 13 E= -12.7778831115451  delta_E= -6.08e-06  |g|= 0.004  |ddm|= 0.0136
HOMO:  -0.21849282729292624 LUMO:  -0.21361336902972605
Fermi energy:      -0.2161246434
[...]
HOMO:  -0.36599496762877004 LUMO:  -0.3654091068876747
Fermi energy:      -0.3664448624
[2.0000e+00 1.9993e+00 1.9893e+00 1.9850e+00 1.9702e+00 1.9622e+00
 1.9505e+00 9.9714e-01 9.5504e-01 8.9679e-01 6.1740e-01 5.7469e-01
 1.0225e-01 2.1294e-04]
entropy correction =  -0.03861724377794227
cycle= 6 E= -13.4014676901185  delta_E= -0.0495  |g|= 0.0489  |ddm|= 0.422
HOMO:  -0.36691596717548997 LUMO:  -0.3662548594481673
Fermi energy:      -0.3672163850
[2.0000e+00 1.9992e+00 1.9893e+00 1.9869e+00 1.9717e+00 1.9544e+00
 1.9483e+00 1.0678e+00 9.6997e-01 9.0414e-01 5.7360e-01 5.4005e-01
 9.4524e-02 2.2092e-04]
entropy correction =  -0.038256209216220353
cycle= 7 E= -13.3995043945304  delta_E= 0.00196  |g|= 0.0628  |ddm|= 0.267
HOMO:  -0.3685276205112899 LUMO:  -0.3661990388217505
Fermi energy:      -0.3679657598
[2.0000e+00 1.9990e+00 1.9896e+00 1.9883e+00 1.9606e+00 1.9604e+00
 1.9434e+00 1.0631e+00 1.0561e+00 8.2514e-01 5.6283e-01 5.5946e-01
 9.1742e-02 2.3365e-04]
entropy correction =  -0.038304453254269955
cycle= 8 E= -13.403246971519  delta_E= -0.00374  |g|= 0.0214  |ddm|= 0.175
HOMO:  -0.3676534174919838 LUMO:  -0.36576628186778626
Fermi energy:      -0.3673038406
[2.0000e+00 1.9989e+00 1.9888e+00 1.9869e+00 1.9614e+00 1.9609e+00
 1.9415e+00 1.0363e+00 1.0349e+00 8.4744e-01 5.7505e-01 5.7379e-01
 9.3841e-02 2.3317e-04]
entropy correction =  -0.03858766294129379
cycle= 9 E= -13.4029882040706  delta_E= 0.000259  |g|= 0.0305  |ddm|= 0.0609
HOMO:  -0.3666160559131798 LUMO:  -0.3652810502108088
Fermi energy:      -0.3665629672
[2.0000e+00 1.9988e+00 1.9876e+00 1.9853e+00 1.9619e+00 1.9616e+00
 1.9395e+00 1.0134e+00 1.0053e+00 8.7251e-01 5.8961e-01 5.8836e-01
 9.6027e-02 2.3307e-04]
entropy correction =  -0.038885081046344486
cycle= 10 E= -13.4036562664074  delta_E= -0.000668  |g|= 0.00306  |ddm|= 0.0557
HOMO:  -0.36631065436456894 LUMO:  -0.36513087304433256
Fermi energy:      -0.3663537481
[2.0000e+00 1.9988e+00 1.9870e+00 1.9856e+00 1.9622e+00 1.9621e+00
 1.9395e+00 1.0079e+00 9.9569e-01 8.7832e-01 5.9451e-01 5.9114e-01
 9.7170e-02 2.3265e-04]
entropy correction =  -0.0389356949474745
cycle= 11 E= -13.403647188945  delta_E= 9.08e-06  |g|= 0.00405  |ddm|= 0.0217
HOMO:  -0.36646742209053235 LUMO:  -0.3651442221512235
Fermi energy:      -0.3664173563
[2.0000e+00 1.9988e+00 1.9874e+00 1.9856e+00 1.9624e+00 1.9617e+00
 1.9400e+00 1.0073e+00 1.0050e+00 8.7337e-01 5.9178e-01 5.8980e-01
 9.6763e-02 2.3334e-04]
entropy correction =  -0.03889083486211652
cycle= 12 E= -13.4036583772674  delta_E= -1.12e-05  |g|= 0.00361  |ddm|= 0.0155
HOMO:  -0.36649168878185356 LUMO:  -0.36515087933082635
Fermi energy:      -0.3664285808
[2.0000e+00 1.9988e+00 1.9874e+00 1.9856e+00 1.9622e+00 1.9618e+00
 1.9400e+00 1.0067e+00 1.0063e+00 8.7292e-01 5.9121e-01 5.9008e-01
 9.6719e-02 2.3333e-04]
entropy correction =  -0.03888685812692986
cycle= 13 E= -13.403667477955  delta_E= -9.1e-06  |g|= 0.000569  |ddm|= 0.00692
HOMO:  -0.3664683986892363 LUMO:  -0.36514494502917466
Fermi energy:      -0.3664193015
[2.0000e+00 1.9988e+00 1.9874e+00 1.9855e+00 1.9621e+00 1.9620e+00
 1.9401e+00 1.0071e+00 1.0049e+00 8.7325e-01 5.9141e-01 5.9045e-01
 9.6749e-02 2.3326e-04]
entropy correction =  -0.038889614708312696
cycle= 14 E= -13.403665626383  delta_E= 1.85e-06  |g|= 0.00162  |ddm|= 0.00425
HOMO:  -0.36646661314929413 LUMO:  -0.3651476585071292
Fermi energy:      -0.3664209693
[2.0000e+00 1.9988e+00 1.9874e+00 1.9855e+00 1.9621e+00 1.9620e+00
 1.9400e+00 1.0073e+00 1.0046e+00 8.7335e-01 5.9143e-01 5.9049e-01
 9.6758e-02 2.3328e-04]
entropy correction =  -0.03889051915459576
cycle= 15 E= -13.4036607333307  delta_E= 4.89e-06  |g|= 0.00304  |ddm|= 0.00585
HOMO:  -0.3664953488472564 LUMO:  -0.36516149035645
Fermi energy:      -0.3664361825
[2.0000e+00 1.9988e+00 1.9874e+00 1.9856e+00 1.9622e+00 1.9619e+00
 1.9400e+00 1.0067e+00 1.0059e+00 8.7322e-01 5.9091e-01 5.9046e-01
 9.6751e-02 2.3343e-04]
entropy correction =  -0.03888968715221802
cycle= 16 E= -13.4036676237555  delta_E= -6.89e-06  |g|= 0.000373  |ddm|= 0.00526
HOMO:  -0.3665052539869751 LUMO:  -0.36516779068683497
Fermi energy:      -0.3664441255
[2.0000e+00 1.9988e+00 1.9874e+00 1.9856e+00 1.9622e+00 1.9619e+00
 1.9400e+00 1.0070e+00 1.0061e+00 8.7306e-01 5.9094e-01 5.9013e-01
 9.6738e-02 2.3345e-04]
entropy correction =  -0.03888778360870954
cycle= 17 E= -13.403667755707  delta_E= -1.32e-07  |g|= 0.000148  |ddm|= 0.00115
HOMO:  -0.3665034459046967 LUMO:  -0.3651664602126919
Fermi energy:      -0.3664423195
[2.0000e+00 1.9988e+00 1.9874e+00 1.9855e+00 1.9622e+00 1.9619e+00
 1.9399e+00 1.0069e+00 1.0061e+00 8.7310e-01 5.9100e-01 5.9016e-01
 9.6739e-02 2.3349e-04]
entropy correction =  -0.03888906494607541
cycle= 18 E= -13.4036674950702  delta_E= 2.61e-07  |g|= 0.00062  |ddm|= 0.0011
HOMO:  -0.36649807174132565 LUMO:  -0.36516229165800507
Fermi energy:      -0.3664378852
[2.0000e+00 1.9988e+00 1.9874e+00 1.9855e+00 1.9622e+00 1.9619e+00
 1.9400e+00 1.0068e+00 1.0060e+00 8.7313e-01 5.9106e-01 5.9028e-01
 9.6739e-02 2.3346e-04]
entropy correction =  -0.0388893980156759
cycle= 19 E= -13.4036677701885  delta_E= -2.75e-07  |g|= 6.23e-05  |ddm|= 0.000969
HOMO:  -0.3664987789973529 LUMO:  -0.3651625677987995
Fermi energy:      -0.3664385917
[2.0000e+00 1.9988e+00 1.9874e+00 1.9856e+00 1.9622e+00 1.9619e+00
 1.9400e+00 1.0068e+00 1.0060e+00 8.7309e-01 5.9105e-01 5.9025e-01
 9.6735e-02 2.3344e-04]
entropy correction =  -0.03888869264214219
cycle= 20 E= -13.4036677736728  delta_E= -3.48e-09  |g|= 1.96e-05  |ddm|= 0.000206
HOMO:  -0.3664998819172865 LUMO:  -0.36516277243011763
Fermi energy:      -0.3664390379
[2.0000e+00 1.9988e+00 1.9874e+00 1.9856e+00 1.9622e+00 1.9619e+00
 1.9400e+00 1.0068e+00 1.0061e+00 8.7306e-01 5.9103e-01 5.9024e-01
 9.6734e-02 2.3343e-04]
entropy correction =  -0.038888322134063916
cycle= 21 E= -13.4036677684634  delta_E= 5.21e-09  |g|= 8.9e-05  |ddm|= 0.000209
HOMO:  -0.36649966491166075 LUMO:  -0.3651627398438494
Fermi energy:      -0.3664390289
[2.0000e+00 1.9988e+00 1.9874e+00 1.9856e+00 1.9622e+00 1.9619e+00
 1.9400e+00 1.0068e+00 1.0061e+00 8.7306e-01 5.9102e-01 5.9025e-01
 9.6734e-02 2.3343e-04]
entropy correction =  -0.038888290029645084
cycle= 22 E= -13.4036677721806  delta_E= -3.72e-09  |g|= 4.9e-05  |ddm|= 0.000232
HOMO:  -0.3664986502308903 LUMO:  -0.36516232424568057
Fermi energy:      -0.3664383789
[2.0000e+00 1.9988e+00 1.9874e+00 1.9856e+00 1.9622e+00 1.9619e+00
 1.9400e+00 1.0068e+00 1.0060e+00 8.7308e-01 5.9104e-01 5.9026e-01
 9.6736e-02 2.3344e-04]
entropy correction =  -0.03888866040781388
cycle= 23 E= -13.4036677740354  delta_E= -1.85e-09  |g|= 1.29e-05  |ddm|= 0.000116
HOMO:  -0.3664987279781377 LUMO:  -0.3651623473490239
Fermi energy:      -0.3664384003
[2.0000e+00 1.9988e+00 1.9874e+00 1.9856e+00 1.9622e+00 1.9619e+00
 1.9400e+00 1.0068e+00 1.0060e+00 8.7308e-01 5.9104e-01 5.9026e-01
 9.6736e-02 2.3344e-04]
entropy correction =  -0.038888663593104965
cycle= 24 E= -13.4036677741335  delta_E= -9.81e-11  |g|= 8.08e-06  |ddm|= 2.98e-05
HOMO:  -0.36649930130339065 LUMO:  -0.3651626464412692
Fermi energy:      -0.3664387557
[2.0000e+00 1.9988e+00 1.9874e+00 1.9856e+00 1.9622e+00 1.9619e+00
 1.9400e+00 1.0068e+00 1.0061e+00 8.7308e-01 5.9103e-01 5.9025e-01
 9.6736e-02 2.3344e-04]
entropy correction =  -0.03888858098054818
Extra cycle  E= -13.4036677670256  delta_E= 7.11e-09  |g|= 0.000101  |ddm|= 0.000158
entropy correction =  -0.03888858098054818
rks_ao.ne_frozen =  0
Set gradient conv threshold to 3.16228e-05
tot grids = 190200
init E= -9.12169490073837
HOMO:  -0.18203744429665136 LUMO:  -0.17115755672022998
Fermi energy:      -0.1750221866
[2.0000e+00 2.0000e+00 2.0000e+00 2.0000e+00 1.9147e+00 1.8508e+00
 1.8499e+00 1.6062e+00 1.6053e+00 6.3169e-01 4.0259e-01 5.8215e-02
 5.6845e-02 1.1582e-02 1.1391e-02 8.3125e-04]
entropy correction =  -0.03162199836985625
cycle= 1 E= -12.4375882371628  delta_E= -3.32  |g|= 0.773  |ddm|= 5.23
HOMO:  -0.13313258573984868 LUMO:  -0.1299786623923577
Fermi energy:      -0.1291121718
[2.0000e+00 2.0000e+00 2.0000e+00 2.0000e+00 2.0000e+00 2.0000e+00
 1.9817e+00 1.3941e+00 1.3817e+00 1.0864e+00 4.8318e-02 4.5808e-02
 3.6260e-02 1.2500e-02 1.0788e-02 1.0415e-03 5.7741e-04 5.0884e-04
 2.9286e-04]
entropy correction =  -0.02369303567784713
cycle= 2 E= -12.3597151232816  delta_E= 0.0779  |g|= 0.987  |ddm|=  2.9
HOMO:  -0.21794578959228794 LUMO:  -0.20957779073245855
Fermi energy:      -0.2147406499
[2.0000e+00 2.0000e+00 2.0000e+00 2.0000e+00 1.9883e+00 1.9880e+00
 1.9670e+00 1.3120e+00 1.3100e+00 5.2517e-01 3.8959e-01 3.8648e-01
 1.0127e-01 1.5695e-02 1.5519e-02 1.0494e-03]
entropy correction =  -0.03300585184998394
cycle= 3 E= -12.748477149557  delta_E= -0.389  |g|= 0.228  |ddm|= 1.38
HOMO:  -0.21849409998652664 LUMO:  -0.21368715123864368
Fermi energy:      -0.2162397939
[2.0000e+00 2.0000e+00 2.0000e+00 2.0000e+00 1.9290e+00 1.8248e+00
 1.8165e+00 1.2244e+00 1.2217e+00 7.5014e-01 7.4792e-01 3.5677e-01
 9.7019e-02 1.5664e-02 1.5277e-02 8.2894e-04]
entropy correction =  -0.04172959267742795
cycle= 4 E= -12.7743319910402  delta_E= -0.0259  |g|= 0.0634  |ddm|= 0.534
HOMO:  -0.21874214322323582 LUMO:  -0.21397047848909354
Fermi energy:      -0.2163325598
[2.0000e+00 2.0000e+00 2.0000e+00 2.0000e+00 1.9364e+00 1.8043e+00
 1.7953e+00 1.2427e+00 1.2364e+00 7.6809e-01 7.1207e-01 3.8353e-01
 9.2799e-02 1.4268e-02 1.3272e-02 7.8151e-04]
entropy correction =  -0.04199160951305614
cycle= 5 E= -12.7554665027035  delta_E= 0.0189  |g|= 0.171  |ddm|= 0.344
HOMO:  -0.21836652029984188 LUMO:  -0.21358238179336328
Fermi energy:      -0.2160998347
[2.0000e+00 2.0000e+00 2.0000e+00 2.0000e+00 1.9333e+00 1.8097e+00
 1.8065e+00 1.2254e+00 1.2229e+00 7.5344e-01 7.4459e-01 3.8258e-01
 9.0147e-02 1.5651e-02 1.5097e-02 7.6550e-04]
entropy correction =  -0.04202012400357665
cycle= 6 E= -12.7776519297477  delta_E= -0.0222  |g|= 0.0118  |ddm|= 0.266
HOMO:  -0.2181595159919513 LUMO:  -0.21321581825902017
Fermi energy:      -0.2157920655
[2.0000e+00 2.0000e+00 2.0000e+00 2.0000e+00 1.9310e+00 1.8056e+00
 1.8052e+00 1.2373e+00 1.2324e+00 7.4793e-01 7.4305e-01 3.7532e-01
 8.9871e-02 1.5912e-02 1.5629e-02 8.1053e-04]
entropy correction =  -0.04201502992377204
cycle= 7 E= -12.7778575669118  delta_E= -0.000206  |g|= 0.00623  |ddm|= 0.0497
HOMO:  -0.21829216060556725 LUMO:  -0.2133366524142652
Fermi energy:      -0.2159049377
[2.0000e+00 2.0000e+00 2.0000e+00 2.0000e+00 1.9310e+00 1.8064e+00
 1.8028e+00 1.2348e+00 1.2343e+00 7.4867e-01 7.4604e-01 3.7400e-01
 8.9693e-02 1.5879e-02 1.5594e-02 8.0654e-04]
entropy correction =  -0.042029400894783894
cycle= 8 E= -12.7778463304108  delta_E= 1.12e-05  |g|= 0.00777  |ddm|= 0.0269
HOMO:  -0.21840663155506293 LUMO:  -0.21350872128170842
Fermi energy:      -0.2160317522
[2.0000e+00 2.0000e+00 2.0000e+00 2.0000e+00 1.9311e+00 1.8051e+00
 1.8023e+00 1.2341e+00 1.2331e+00 7.5292e-01 7.4694e-01 3.7273e-01
 8.9489e-02 1.5882e-02 1.5494e-02 8.0086e-04]
entropy correction =  -0.042049620399625745
cycle= 9 E= -12.7778806011716  delta_E= -3.43e-05  |g|= 0.00336  |ddm|= 0.0191
HOMO:  -0.2184388525803028 LUMO:  -0.21353497891331538
Fermi energy:      -0.2160651649
[2.0000e+00 2.0000e+00 2.0000e+00 2.0000e+00 1.9312e+00 1.8040e+00
 1.8020e+00 1.2339e+00 1.2330e+00 7.5225e-01 7.4971e-01 3.7239e-01
 8.9405e-02 1.5817e-02 1.5534e-02 7.9894e-04]
entropy correction =  -0.0420665870479986
cycle= 10 E= -12.7778839317041  delta_E= -3.33e-06  |g|= 0.00296  |ddm|= 0.00851
HOMO:  -0.21843081629731584 LUMO:  -0.2135224360181859
Fermi energy:      -0.2160629283
[2.0000e+00 2.0000e+00 2.0000e+00 2.0000e+00 1.9312e+00 1.8038e+00
 1.8022e+00 1.2342e+00 1.2325e+00 7.5128e-01 7.5110e-01 3.7230e-01
 8.9395e-02 1.5784e-02 1.5554e-02 7.9855e-04]
entropy correction =  -0.04206717022501201
cycle= 11 E= -12.7778903367762  delta_E= -6.41e-06  |g|= 0.000625  |ddm|= 0.00556
HOMO:  -0.21840171934385605 LUMO:  -0.21348638370553608
Fermi energy:      -0.2160302878
[2.0000e+00 2.0000e+00 2.0000e+00 2.0000e+00 1.9312e+00 1.8046e+00
 1.8022e+00 1.2340e+00 1.2328e+00 7.5096e-01 7.5015e-01 3.7248e-01
 8.9373e-02 1.5790e-02 1.5554e-02 7.9929e-04]
entropy correction =  -0.04205450887408753
cycle= 12 E= -12.7778904314828  delta_E= -9.47e-08  |g|= 0.000535  |ddm|= 0.0022
HOMO:  -0.2183990869738156 LUMO:  -0.21348391315880622
Fermi energy:      -0.2160280498
[2.0000e+00 2.0000e+00 2.0000e+00 2.0000e+00 1.9312e+00 1.8043e+00
 1.8026e+00 1.2341e+00 1.2328e+00 7.5094e-01 7.5013e-01 3.7250e-01
 8.9374e-02 1.5797e-02 1.5549e-02 7.9937e-04]
entropy correction =  -0.04205464487812445
cycle= 13 E= -12.7778906510646  delta_E= -2.2e-07  |g|= 0.000123  |ddm|= 0.00145
HOMO:  -0.21839984159011983 LUMO:  -0.2134841031162547
Fermi energy:      -0.2160284672
[2.0000e+00 2.0000e+00 2.0000e+00 2.0000e+00 1.9312e+00 1.8043e+00
 1.8025e+00 1.2341e+00 1.2328e+00 7.5092e-01 7.5022e-01 3.7248e-01
 8.9362e-02 1.5796e-02 1.5550e-02 7.9927e-04]
entropy correction =  -0.042055403147662665
cycle= 14 E= -12.777890662907  delta_E= -1.18e-08  |g|= 2.83e-05  |ddm|= 0.00033
HOMO:  -0.21840060978456696 LUMO:  -0.21348514650679307
Fermi energy:      -0.2160291851
[2.0000e+00 2.0000e+00 2.0000e+00 2.0000e+00 1.9312e+00 1.8043e+00
 1.8025e+00 1.2341e+00 1.2328e+00 7.5095e-01 7.5022e-01 3.7248e-01
 8.9361e-02 1.5796e-02 1.5550e-02 7.9924e-04]
entropy correction =  -0.042055650567694176
cycle= 15 E= -12.7778906641229  delta_E= -1.22e-09  |g|= 7.49e-06  |ddm|= 0.000125
HOMO:  -0.21840136820267983 LUMO:  -0.21348584192253123
Fermi energy:      -0.2160300010
[2.0000e+00 2.0000e+00 2.0000e+00 2.0000e+00 1.9312e+00 1.8043e+00
 1.8025e+00 1.2341e+00 1.2328e+00 7.5093e-01 7.5025e-01 3.7247e-01
 8.9361e-02 1.5797e-02 1.5549e-02 7.9921e-04]
entropy correction =  -0.042055675229421885
cycle= 16 E= -12.7778906627375  delta_E= 1.39e-09  |g|= 4.21e-05  |ddm|= 0.000103
HOMO:  -0.21840114860491266 LUMO:  -0.21348577371494934
Fermi energy:      -0.2160298095
[2.0000e+00 2.0000e+00 2.0000e+00 2.0000e+00 1.9312e+00 1.8043e+00
 1.8025e+00 1.2341e+00 1.2328e+00 7.5095e-01 7.5023e-01 3.7247e-01
 8.9361e-02 1.5796e-02 1.5550e-02 7.9922e-04]
entropy correction =  -0.04205559432363836
cycle= 17 E= -12.7778906641482  delta_E= -1.41e-09  |g|= 5.65e-06  |ddm|= 8.45e-05
HOMO:  -0.21840107169713519 LUMO:  -0.2134857039617761
Fermi energy:      -0.2160297303
[2.0000e+00 2.0000e+00 2.0000e+00 2.0000e+00 1.9312e+00 1.8043e+00
 1.8025e+00 1.2341e+00 1.2328e+00 7.5095e-01 7.5023e-01 3.7247e-01
 8.9361e-02 1.5796e-02 1.5550e-02 7.9923e-04]
entropy correction =  -0.04205558546866847
cycle= 18 E= -12.7778906641634  delta_E= -1.52e-11  |g|= 3.7e-06  |ddm|= 1.68e-05
HOMO:  -0.2184010334261134 LUMO:  -0.21348553413841242
Fermi energy:      -0.2160296357
[2.0000e+00 2.0000e+00 2.0000e+00 2.0000e+00 1.9312e+00 1.8043e+00
 1.8025e+00 1.2341e+00 1.2328e+00 7.5094e-01 7.5024e-01 3.7247e-01
 8.9361e-02 1.5796e-02 1.5550e-02 7.9923e-04]
entropy correction =  -0.0420556388948724
Extra cycle  E= -12.7778906636237  delta_E= 5.4e-10  |g|= 2.65e-05  |ddm|= 5.62e-05
entropy correction =  -0.0420556388948724
scf energies:
EA (no vemb contrib.) =  -34.78924625613955
EB (no vemb contrib.) =  -24.950131261291496
W =  -59.63621018613189
P_imp change (scf - non-scf):  1.7099750138352473e-12
P_bath change (scf - non-scf):  3.605337166694844e-13
|P_frag + P_env - P_ref| =  0.0680033071006124
max element of (P_frag + P_env - P_ref) =  0.0033736432452094803
mo orthogonality:
[[-4.4775e-06  3.2820e-06 -1.4540e-05  1.5234e-02 -1.2448e-06 -4.7970e-05
  -3.0644e-05 -4.6256e-06  1.0856e-05  7.5864e-05 -4.2384e-07 -4.5500e-05
   3.2496e-01  1.3544e-04 -1.2915e-04  4.5588e-01 -8.6372e-05  8.7179e-04
   1.6353e-04]
 [ 1.6643e-05 -1.7428e-05  8.2775e-03  9.7509e-06  3.3156e-06 -4.2687e-06
  -1.2497e-06  2.5872e-04 -2.2506e-04 -7.2548e-06  6.4789e-06 -2.4821e-01
   1.1751e-04  1.0048e-04  1.9378e-05 -1.2995e-04 -1.2243e-03 -8.7739e-03
  -9.7678e-03]
 [ 3.1971e-04  1.0403e-03  6.7581e-05  4.1011e-05  2.4022e-05  1.6601e-05
   1.6444e-05  6.5620e-03  1.9653e-02 -6.7536e-05 -3.4423e-06 -2.2752e-03
   7.3162e-05 -1.7767e-04  3.3067e-05 -6.1010e-04  1.6040e-02  6.8598e-01
  -1.1456e-01]
 [ 6.2121e-04 -2.6325e-04 -4.2846e-05 -4.8072e-06  7.9447e-06 -3.9655e-06
  -2.3824e-05  2.0225e-02 -6.1679e-03  4.6469e-05 -1.2812e-06  1.9469e-03
  -1.6607e-05 -2.9221e-04 -1.1818e-04  3.8773e-04 -1.4699e-02 -9.6532e-02
  -7.9580e-01]
 [-5.8327e-06 -6.3847e-07  7.6512e-06 -4.0529e-05 -7.4678e-06  2.0751e-02
  -6.7587e-03  2.2378e-05  1.2417e-05  5.7965e-02 -4.2823e-02 -1.6627e-04
  -2.3779e-04 -3.4055e-01  8.6500e-01  3.1223e-04 -3.5072e-04 -5.5598e-04
  -1.0553e-03]
 [-4.7120e-06 -4.6967e-06  8.3073e-06 -2.3588e-05  1.4096e-05  6.8530e-03
   2.0764e-02 -1.0709e-05 -7.8406e-05  4.2973e-02  5.7755e-02  1.0194e-04
   1.8726e-04  8.6522e-01  3.3989e-01 -5.1466e-04 -1.5826e-03 -3.4193e-04
  -2.0225e-04]
 [-5.4332e-06 -2.5850e-06 -1.0908e-05 -6.2525e-03  2.5309e-06  4.1788e-05
   1.1504e-04  1.8008e-05 -1.9404e-05 -3.2647e-05  4.9107e-05 -1.4521e-05
  -7.6054e-01  5.3770e-04 -1.2821e-04  5.3211e-01 -3.1342e-04  4.5697e-04
   2.0091e-04]
 [-1.8562e-05  3.2672e-07 -2.8203e-06  1.5569e-04 -6.4271e-05 -1.9698e-01
   2.2017e-02 -8.4052e-06  7.5932e-05  8.7634e-01 -4.0496e-01 -1.5639e-04
  -8.0033e-05  1.1928e-02 -7.1428e-02  2.1593e-05 -4.2407e-04  1.5584e-04
   5.7080e-05]
 [-2.0407e-05  2.6692e-06 -3.5604e-05 -1.0519e-05  8.0961e-05  2.2095e-02
   1.9621e-01 -5.3372e-05 -1.1500e-05 -4.0496e-01 -8.7655e-01 -3.2540e-04
  -1.7087e-05  7.1154e-02  1.2457e-02 -1.1255e-04  3.4985e-05 -2.2771e-04
   8.6033e-05]
 [-5.4507e-05  1.0371e-04  5.7842e-02 -6.6381e-05  1.4866e-06 -3.1093e-05
   8.4837e-05  3.1782e-05  3.5030e-04  9.0747e-06 -3.9113e-04  9.3725e-01
  -2.5236e-05 -1.0260e-04  1.2770e-04 -7.2278e-05 -2.1531e-04 -3.6068e-04
  -1.1474e-03]
 [-2.0029e-03 -3.1851e-02  4.6712e-05  3.0277e-05 -3.9676e-05  1.0592e-04
  -3.0700e-06  3.5383e-02  9.7261e-01 -5.1132e-05  2.0976e-05 -3.1585e-04
  -2.4791e-05  9.3634e-05  4.0516e-05  3.9264e-05 -4.4311e-04 -1.6945e-03
  -1.5207e-03]
 [-3.0589e-02  2.1975e-03 -4.5289e-05  5.4706e-05  8.2674e-05  1.0563e-05
   3.0643e-06  9.7223e-01 -3.5511e-02 -1.6077e-05 -5.1119e-05  3.2227e-05
   3.7209e-05  3.7787e-05 -9.4275e-05 -1.3926e-05  9.5202e-04 -2.5132e-04
   1.5188e-02]
 [ 1.1250e-04 -2.8172e-04  6.4835e-04 -7.7244e-01 -1.3468e-04 -1.6843e-04
   1.5540e-04  6.8160e-05 -1.4284e-05  9.6174e-05  6.6419e-05 -1.7103e-04
  -2.8253e-01 -2.2841e-04 -2.0136e-04 -3.2219e-01  2.1262e-04 -1.0949e-04
  -1.2358e-05]
 [ 2.2979e-03 -4.1881e-04  1.6026e-05  1.7746e-04 -9.5822e-01  1.3186e-04
   3.8277e-04  3.4930e-04 -1.1463e-04 -4.4231e-05  1.2729e-05 -8.4609e-07
  -2.1801e-05 -5.5831e-05 -1.4881e-04 -1.7676e-05 -1.6725e-04 -2.7792e-04
   5.8421e-05]]
|P_imp-P_imp_0| =  1.7099750138352473e-12
max(P_imp-P_imp_0) =  2.407518628899652e-13
|P_bath-P_bath_0| =  3.605337166694844e-13
max(P_bath-P_bath_0) =  3.6193270602780103e-14
RUNNING THE L-BFGS-B CODE

           * * *

Machine precision = 2.220D-16
 N =         4656     M =           10

At X0         0 variables are exactly at the bounds

At iterate    0    f=   1.175133368907E-03    |proj g|=  6.346389855E-04

At iterate    1    f=   1.175133368907E-03    |proj g|=  6.346389861E-04

           * * *

Tit   = total number of iterations
Tnf   = total number of function evaluations
Tnint = total number of segments explored during Cauchy searches
Skip  = number of BFGS updates skipped
Nact  = number of active bounds at final generalized Cauchy point
Projg = norm of the final projected gradient
F     = final function value

           * * *

   N    Tit     Tnf  Tnint  Skip  Nact     Projg        F
 4656      1     19      1     0     0   6.346D-04   1.175D-03
  F =   1.1751333689068455E-003

CONVERGENCE: REL_REDUCTION_OF_F_<=_FACTR*EPSMCH             

 Cauchy                time 0.000E+00 seconds.
 Subspace minimization time 0.000E+00 seconds.
 Line search           time 0.000E+00 seconds.

 Total User time 0.000E+00 seconds.

