#INFO: **** input file is /tigress/xingz/pydmfet/examples/research/Al12/dmfet/least/Al12.py ****
from pydmfet import locints, sdmfet, oep, tools, dfet_ao, proj_ao
from pydmfet.dfet_ao import dfet
from pydmfet.qcwrap.pyscf_rks_ao import rks_ao
from pyscf import gto, scf,dft, ao2mo,cc
import numpy as np
from pyscf.tools import molden, cubegen
import copy,time
from pydmfet.tools.sym import h_lattice_sym_tab

bas = 'stuttgartdz'
ecp = 'stuttgartdz'
temp = 0.005


mol = gto.Mole()
mol.atom = open('Al12.xyz').read()
mol.basis = bas
mol.ecp = ecp
mol.build(max_memory = 4000, verbose=4)

mf = rks_ao(mol,smear_sigma = temp)
mf.xc = 'pbe,pbe'
mf.max_cycle = 50
mf.scf(dm0=None)

natoms = mol.natm
impAtom = np.zeros([natoms], dtype=int)
for i in range(6):
    impAtom[i] = 1

ghost_frag = 1-impAtom
ghost_env = 1-ghost_frag

mol_frag = gto.Mole()
mol_frag.atom = tools.add_ghost(mol.atom, ghost_frag)
mol_frag.basis = bas
mol_frag.ecp = ecp
mol_frag.build(max_memory = 4000,verbose = 4)

mol_env = gto.Mole()
mol_env.atom = tools.add_ghost(mol.atom, ghost_env)
mol_env.basis =  bas
mol_env.ecp = ecp
mol_env.build(max_memory = 4000,verbose = 4)

Ne_frag = 18
Ne_env = 18

boundary_atoms = None
boundary_atoms2 =None

umat = None
umat = np.load("umat.npy")

params = oep.OEPparams(algorithm = 'leastsq', opt_method = 'L-BFGS-B', diffP_tol=1e-3, outer_maxit = 10)
params.options['ftol'] = 1e-10
params.options['gtol'] = 1e-4
params.options['maxiter'] = 100
params.options['svd_thresh'] = 1e-5

theDMFET = dfet.DFET(mf, mol_frag, mol_env,Ne_frag,Ne_env,\
                     boundary_atoms=boundary_atoms, boundary_atoms2=boundary_atoms2,umat = umat,\
                     oep_params=params, smear_sigma=temp, ecw_method = 'hf',mf_method = mf.xc, plot_dens=True)

umat = theDMFET.embedding_potential()
#INFO: ******************** input file end ********************


System: uname_result(system='Linux', node='tiger-i25c1n16', release='3.10.0-957.27.2.el7.x86_64', version='#1 SMP Tue Jul 30 11:12:20 EDT 2019', machine='x86_64', processor='x86_64')  Threads 40
Python 3.7.0 (default, Jun 28 2018, 13:15:42) 
[GCC 7.2.0]
numpy 1.16.4  scipy 1.4.0.dev0+0f78e0f
Date: Tue Aug 20 16:29:15 2019
PySCF version 1.5
PySCF path  /home/xingz/.local/lib/python3.7/site-packages/pyscf

[CONFIG] conf_file None
[INPUT] verbose = 4
[INPUT] num. atoms = 12
[INPUT] num. electrons = 36
[INPUT] charge = 0
[INPUT] spin (= nelec alpha-beta = 2S) = 0
[INPUT] symmetry False subgroup None
[INPUT] Mole.unit = angstrom
[INPUT]  1 Al     8.092960000000   4.046480000000  -0.000000000000 AA   15.293477937060   7.646738968530  -0.000000000000 Bohr
[INPUT]  2 Al     8.092960000000   6.069720000000  -2.023240000000 AA   15.293477937060  11.470108452795  -3.823369484265 Bohr
[INPUT]  3 Al    10.116200000000   4.046480000000  -2.023240000000 AA   19.116847421325   7.646738968530  -3.823369484265 Bohr
[INPUT]  4 Al     6.069720000000   4.046480000000  -2.023240000000 AA   11.470108452795   7.646738968530  -3.823369484265 Bohr
[INPUT]  5 Al     8.092960000000   2.023240000000  -2.023240000000 AA   15.293477937060   3.823369484265  -3.823369484265 Bohr
[INPUT]  6 Al     8.092960000000   4.046480000000  -4.046480000000 AA   15.293477937060   7.646738968530  -7.646738968530 Bohr
[INPUT]  7 Al     6.069720000000   6.069720000000  -0.000000000000 AA   11.470108452795  11.470108452795  -0.000000000000 Bohr
[INPUT]  8 Al    10.116200000000   2.023240000000  -0.000000000000 AA   19.116847421325   3.823369484265  -0.000000000000 Bohr
[INPUT]  9 Al    10.116200000000   6.069720000000  -4.046480000000 AA   19.116847421325  11.470108452795  -7.646738968530 Bohr
[INPUT] 10 Al     6.069720000000   2.023240000000  -0.000000000000 AA   11.470108452795   3.823369484265  -0.000000000000 Bohr
[INPUT] 11 Al     6.069720000000   6.069720000000  -4.046480000000 AA   11.470108452795  11.470108452795  -7.646738968530 Bohr
[INPUT] 12 Al    10.116200000000   2.023240000000  -4.046480000000 AA   19.116847421325   3.823369484265  -7.646738968530 Bohr

nuclear repulsion = 84.8573926838199
number of shells = 48
number of NR pGTOs = 192
number of NR cGTOs = 96
basis = stuttgartdz
ecp = stuttgartdz
CPU time:         4.74
rks_ao.ne_frozen =  0


******** <class 'pydmfet.qcwrap.pyscf_rks_ao.rks_ao'> flags ********
method = rks_ao-RKS-RHF
initial guess = minao
damping factor = 0
level shift factor = 0
DIIS = <class 'pyscf.scf.diis.CDIIS'>
DIIS start cycle = 1
DIIS space = 8
SCF tol = 1e-09
SCF gradient tol = None
max. SCF cycles = 50
direct_scf = False
chkfile to save SCF result = /tmp/tmp8elf3flq
max_memory 4000 MB (current use 70 MB)
XC functionals = pbe,pbe
small_rho_cutoff = 1e-07
radial grids: 
    Treutler-Ahlrichs (JCP 102, 346 (M4)) radial grids
    
becke partition: Becke, JCP, 88, 2547 (1988)
pruning grids: <function nwchem_prune at 0x2b9034858400>
grids dens level: 3
symmetrized grids: False
atomic radii adjust function: <function treutler_atomic_radii_adjust at 0x2b9034858378>
Set gradient conv threshold to 3.16228e-05
tot grids = 220800
init E= -21.344783658299
HOMO:  -0.09640875247665508 LUMO:  -0.08910626015727992
Fermi energy:      -0.0887572500
[2.     2.     2.     2.     2.     2.     2.     2.     2.     2.
 2.     2.     1.9995 1.9096 1.7557 1.7557 1.6441 1.6441 1.0349 0.2163
 0.02   0.02  ]
entropy correction =  -0.030126401120554865
cycle= 1 E= -24.0317931623435  delta_E= -2.69  |g|= 0.653  |ddm|= 6.67
HOMO:  -0.23116268121406566 LUMO:  -0.23116268121406458
Fermi energy:      -0.2358858179
[2.     2.     2.     2.     2.     2.     2.     2.     2.     2.
 2.     2.     2.     1.9989 1.9981 1.9981 1.9963 0.5599 0.5599 0.4393
 0.4393 0.0101]
entropy correction =  -0.023039333382987786
cycle= 2 E= -22.7589412389303  delta_E= 1.27  |g|= 1.61  |ddm|= 4.31
HOMO:  -0.1864794289436312 LUMO:  -0.17551521715008747
Fermi energy:      -0.1766937420
[2.     2.     2.     2.     2.     2.     2.     2.     2.     2.
 2.     2.     1.9995 1.9702 1.7766 1.7766 1.7524 1.7524 0.8827 0.0807
 0.0044 0.0044]
entropy correction =  -0.024152976140203664
cycle= 3 E= -24.15778191396  delta_E= -1.4  |g|= 0.177  |ddm|= 3.48
HOMO:  -0.16723309364643105 LUMO:  -0.16668219584287086
Fermi energy:      -0.1626445453
[2.     2.     2.     2.     2.     2.     2.     2.     2.     2.
 2.     2.     1.9999 1.922  1.8341 1.8341 1.4292 1.4292 1.3832 0.1196
 0.0244 0.0244]
entropy correction =  -0.02909238898208621
cycle= 4 E= -24.1758252803637  delta_E= -0.018  |g|= 0.0887  |ddm|= 0.83
HOMO:  -0.16913270192186258 LUMO:  -0.16476599946426065
Fermi energy:      -0.1627185946
[2.     2.     2.     2.     2.     2.     2.     2.     2.     2.
 2.     2.     1.9998 1.9364 1.7964 1.7964 1.5659 1.5659 1.2019 0.1144
 0.0115 0.0115]
entropy correction =  -0.028086976616489148
cycle= 5 E= -24.1831548018882  delta_E= -0.00733  |g|= 0.00917  |ddm|= 0.293
HOMO:  -0.1704974926454967 LUMO:  -0.1661181449768936
Fermi energy:      -0.1641279001
[2.     2.     2.     2.     2.     2.     2.     2.     2.     2.
 2.     2.     1.9999 1.9389 1.802  1.802  1.5628 1.5628 1.1964 0.1103
 0.0124 0.0124]
entropy correction =  -0.027959631237355214
cycle= 6 E= -24.1832343076201  delta_E= -7.95e-05  |g|= 0.00113  |ddm|= 0.0422
HOMO:  -0.17058528293729466 LUMO:  -0.16630331880958038
Fermi energy:      -0.1642599608
[2.     2.     2.     2.     2.     2.     2.     2.     2.     2.
 2.     2.     1.9999 1.9387 1.8025 1.8025 1.5598 1.5598 1.2015 0.1105
 0.0124 0.0124]
entropy correction =  -0.027983238069822787
cycle= 7 E= -24.1832355424437  delta_E= -1.23e-06  |g|= 0.000895  |ddm|= 0.00747
HOMO:  -0.17054731833023054 LUMO:  -0.16621690815491436
Fermi energy:      -0.1641961314
[2.     2.     2.     2.     2.     2.     2.     2.     2.     2.
 2.     2.     1.9999 1.9385 1.8018 1.8018 1.5616 1.5616 1.1994 0.1109
 0.0124 0.0124]
entropy correction =  -0.02798901659182567
cycle= 8 E= -24.1832361917861  delta_E= -6.49e-07  |g|= 7.71e-05  |ddm|= 0.00356
HOMO:  -0.17053508515536148 LUMO:  -0.16621147282032342
Fermi energy:      -0.1641878969
[2.     2.     2.     2.     2.     2.     2.     2.     2.     2.
 2.     2.     1.9999 1.9385 1.8019 1.8019 1.5613 1.5613 1.1996 0.1108
 0.0124 0.0124]
entropy correction =  -0.027988384491849438
cycle= 9 E= -24.1832362012563  delta_E= -9.47e-09  |g|= 2.11e-05  |ddm|= 0.000544
HOMO:  -0.17053203701370862 LUMO:  -0.16620777273045367
Fermi energy:      -0.1641845192
[2.     2.     2.     2.     2.     2.     2.     2.     2.     2.
 2.     2.     1.9999 1.9385 1.8019 1.8019 1.5613 1.5613 1.1996 0.1108
 0.0124 0.0124]
entropy correction =  -0.027988108712781266
cycle= 10 E= -24.1832362015522  delta_E= -2.96e-10  |g|= 3.03e-06  |ddm|= 6.6e-05
HOMO:  -0.17053311710144115 LUMO:  -0.16620885001250338
Fermi energy:      -0.1641855888
[2.     2.     2.     2.     2.     2.     2.     2.     2.     2.
 2.     2.     1.9999 1.9385 1.8019 1.8019 1.5613 1.5613 1.1996 0.1108
 0.0124 0.0124]
entropy correction =  -0.027988118840463306
Extra cycle  E= -24.1832362015498  delta_E= 2.37e-12  |g|= 3.71e-06  |ddm|= 1.75e-05
converged SCF energy = -24.1832362015498
#INFO: **** input file is /tigress/xingz/pydmfet/examples/research/Al12/dmfet/least/Al12.py ****
from pydmfet import locints, sdmfet, oep, tools, dfet_ao, proj_ao
from pydmfet.dfet_ao import dfet
from pydmfet.qcwrap.pyscf_rks_ao import rks_ao
from pyscf import gto, scf,dft, ao2mo,cc
import numpy as np
from pyscf.tools import molden, cubegen
import copy,time
from pydmfet.tools.sym import h_lattice_sym_tab

bas = 'stuttgartdz'
ecp = 'stuttgartdz'
temp = 0.005


mol = gto.Mole()
mol.atom = open('Al12.xyz').read()
mol.basis = bas
mol.ecp = ecp
mol.build(max_memory = 4000, verbose=4)

mf = rks_ao(mol,smear_sigma = temp)
mf.xc = 'pbe,pbe'
mf.max_cycle = 50
mf.scf(dm0=None)

natoms = mol.natm
impAtom = np.zeros([natoms], dtype=int)
for i in range(6):
    impAtom[i] = 1

ghost_frag = 1-impAtom
ghost_env = 1-ghost_frag

mol_frag = gto.Mole()
mol_frag.atom = tools.add_ghost(mol.atom, ghost_frag)
mol_frag.basis = bas
mol_frag.ecp = ecp
mol_frag.build(max_memory = 4000,verbose = 4)

mol_env = gto.Mole()
mol_env.atom = tools.add_ghost(mol.atom, ghost_env)
mol_env.basis =  bas
mol_env.ecp = ecp
mol_env.build(max_memory = 4000,verbose = 4)

Ne_frag = 18
Ne_env = 18

boundary_atoms = None
boundary_atoms2 =None

umat = None
umat = np.load("umat.npy")

params = oep.OEPparams(algorithm = 'leastsq', opt_method = 'L-BFGS-B', diffP_tol=1e-3, outer_maxit = 10)
params.options['ftol'] = 1e-10
params.options['gtol'] = 1e-4
params.options['maxiter'] = 100
params.options['svd_thresh'] = 1e-5

theDMFET = dfet.DFET(mf, mol_frag, mol_env,Ne_frag,Ne_env,\
                     boundary_atoms=boundary_atoms, boundary_atoms2=boundary_atoms2,umat = umat,\
                     oep_params=params, smear_sigma=temp, ecw_method = 'hf',mf_method = mf.xc, plot_dens=True)

umat = theDMFET.embedding_potential()
#INFO: ******************** input file end ********************


System: uname_result(system='Linux', node='tiger-i25c1n16', release='3.10.0-957.27.2.el7.x86_64', version='#1 SMP Tue Jul 30 11:12:20 EDT 2019', machine='x86_64', processor='x86_64')  Threads 40
Python 3.7.0 (default, Jun 28 2018, 13:15:42) 
[GCC 7.2.0]
numpy 1.16.4  scipy 1.4.0.dev0+0f78e0f
Date: Tue Aug 20 16:29:28 2019
PySCF version 1.5
PySCF path  /home/xingz/.local/lib/python3.7/site-packages/pyscf

[CONFIG] conf_file None
[INPUT] verbose = 4
[INPUT] num. atoms = 12
[INPUT] num. electrons = 18
[INPUT] charge = 0
[INPUT] spin (= nelec alpha-beta = 2S) = 0
[INPUT] symmetry False subgroup None
[INPUT] Mole.unit = angstrom
[INPUT]  1 Al     8.092960000000   4.046480000000  -0.000000000000 AA   15.293477937060   7.646738968530  -0.000000000000 Bohr
[INPUT]  2 Al     8.092960000000   6.069720000000  -2.023240000000 AA   15.293477937060  11.470108452795  -3.823369484265 Bohr
[INPUT]  3 Al    10.116200000000   4.046480000000  -2.023240000000 AA   19.116847421325   7.646738968530  -3.823369484265 Bohr
[INPUT]  4 Al     6.069720000000   4.046480000000  -2.023240000000 AA   11.470108452795   7.646738968530  -3.823369484265 Bohr
[INPUT]  5 Al     8.092960000000   2.023240000000  -2.023240000000 AA   15.293477937060   3.823369484265  -3.823369484265 Bohr
[INPUT]  6 Al     8.092960000000   4.046480000000  -4.046480000000 AA   15.293477937060   7.646738968530  -7.646738968530 Bohr
[INPUT]  7 GHOST-Al   6.069720000000   6.069720000000  -0.000000000000 AA   11.470108452795  11.470108452795  -0.000000000000 Bohr
[INPUT]  8 GHOST-Al  10.116200000000   2.023240000000  -0.000000000000 AA   19.116847421325   3.823369484265  -0.000000000000 Bohr
[INPUT]  9 GHOST-Al  10.116200000000   6.069720000000  -4.046480000000 AA   19.116847421325  11.470108452795  -7.646738968530 Bohr
[INPUT] 10 GHOST-Al   6.069720000000   2.023240000000  -0.000000000000 AA   11.470108452795   3.823369484265  -0.000000000000 Bohr
[INPUT] 11 GHOST-Al   6.069720000000   6.069720000000  -4.046480000000 AA   11.470108452795  11.470108452795  -7.646738968530 Bohr
[INPUT] 12 GHOST-Al  10.116200000000   2.023240000000  -4.046480000000 AA   19.116847421325   3.823369484265  -7.646738968530 Bohr

nuclear repulsion = 23.5047992975816
number of shells = 48
number of NR pGTOs = 192
number of NR cGTOs = 96
basis = stuttgartdz
ecp = stuttgartdz
CPU time:       348.72
#INFO: **** input file is /tigress/xingz/pydmfet/examples/research/Al12/dmfet/least/Al12.py ****
from pydmfet import locints, sdmfet, oep, tools, dfet_ao, proj_ao
from pydmfet.dfet_ao import dfet
from pydmfet.qcwrap.pyscf_rks_ao import rks_ao
from pyscf import gto, scf,dft, ao2mo,cc
import numpy as np
from pyscf.tools import molden, cubegen
import copy,time
from pydmfet.tools.sym import h_lattice_sym_tab

bas = 'stuttgartdz'
ecp = 'stuttgartdz'
temp = 0.005


mol = gto.Mole()
mol.atom = open('Al12.xyz').read()
mol.basis = bas
mol.ecp = ecp
mol.build(max_memory = 4000, verbose=4)

mf = rks_ao(mol,smear_sigma = temp)
mf.xc = 'pbe,pbe'
mf.max_cycle = 50
mf.scf(dm0=None)

natoms = mol.natm
impAtom = np.zeros([natoms], dtype=int)
for i in range(6):
    impAtom[i] = 1

ghost_frag = 1-impAtom
ghost_env = 1-ghost_frag

mol_frag = gto.Mole()
mol_frag.atom = tools.add_ghost(mol.atom, ghost_frag)
mol_frag.basis = bas
mol_frag.ecp = ecp
mol_frag.build(max_memory = 4000,verbose = 4)

mol_env = gto.Mole()
mol_env.atom = tools.add_ghost(mol.atom, ghost_env)
mol_env.basis =  bas
mol_env.ecp = ecp
mol_env.build(max_memory = 4000,verbose = 4)

Ne_frag = 18
Ne_env = 18

boundary_atoms = None
boundary_atoms2 =None

umat = None
umat = np.load("umat.npy")

params = oep.OEPparams(algorithm = 'leastsq', opt_method = 'L-BFGS-B', diffP_tol=1e-3, outer_maxit = 10)
params.options['ftol'] = 1e-10
params.options['gtol'] = 1e-4
params.options['maxiter'] = 100
params.options['svd_thresh'] = 1e-5

theDMFET = dfet.DFET(mf, mol_frag, mol_env,Ne_frag,Ne_env,\
                     boundary_atoms=boundary_atoms, boundary_atoms2=boundary_atoms2,umat = umat,\
                     oep_params=params, smear_sigma=temp, ecw_method = 'hf',mf_method = mf.xc, plot_dens=True)

umat = theDMFET.embedding_potential()
#INFO: ******************** input file end ********************


System: uname_result(system='Linux', node='tiger-i25c1n16', release='3.10.0-957.27.2.el7.x86_64', version='#1 SMP Tue Jul 30 11:12:20 EDT 2019', machine='x86_64', processor='x86_64')  Threads 40
Python 3.7.0 (default, Jun 28 2018, 13:15:42) 
[GCC 7.2.0]
numpy 1.16.4  scipy 1.4.0.dev0+0f78e0f
Date: Tue Aug 20 16:29:28 2019
PySCF version 1.5
PySCF path  /home/xingz/.local/lib/python3.7/site-packages/pyscf

[CONFIG] conf_file None
[INPUT] verbose = 4
[INPUT] num. atoms = 12
[INPUT] num. electrons = 18
[INPUT] charge = 0
[INPUT] spin (= nelec alpha-beta = 2S) = 0
[INPUT] symmetry False subgroup None
[INPUT] Mole.unit = angstrom
[INPUT]  1 GHOST-Al   8.092960000000   4.046480000000  -0.000000000000 AA   15.293477937060   7.646738968530  -0.000000000000 Bohr
[INPUT]  2 GHOST-Al   8.092960000000   6.069720000000  -2.023240000000 AA   15.293477937060  11.470108452795  -3.823369484265 Bohr
[INPUT]  3 GHOST-Al  10.116200000000   4.046480000000  -2.023240000000 AA   19.116847421325   7.646738968530  -3.823369484265 Bohr
[INPUT]  4 GHOST-Al   6.069720000000   4.046480000000  -2.023240000000 AA   11.470108452795   7.646738968530  -3.823369484265 Bohr
[INPUT]  5 GHOST-Al   8.092960000000   2.023240000000  -2.023240000000 AA   15.293477937060   3.823369484265  -3.823369484265 Bohr
[INPUT]  6 GHOST-Al   8.092960000000   4.046480000000  -4.046480000000 AA   15.293477937060   7.646738968530  -7.646738968530 Bohr
[INPUT]  7 Al     6.069720000000   6.069720000000  -0.000000000000 AA   11.470108452795  11.470108452795  -0.000000000000 Bohr
[INPUT]  8 Al    10.116200000000   2.023240000000  -0.000000000000 AA   19.116847421325   3.823369484265  -0.000000000000 Bohr
[INPUT]  9 Al    10.116200000000   6.069720000000  -4.046480000000 AA   19.116847421325  11.470108452795  -7.646738968530 Bohr
[INPUT] 10 Al     6.069720000000   2.023240000000  -0.000000000000 AA   11.470108452795   3.823369484265  -0.000000000000 Bohr
[INPUT] 11 Al     6.069720000000   6.069720000000  -4.046480000000 AA   11.470108452795  11.470108452795  -7.646738968530 Bohr
[INPUT] 12 Al    10.116200000000   2.023240000000  -4.046480000000 AA   19.116847421325   3.823369484265  -7.646738968530 Bohr

nuclear repulsion = 14.0938802665721
number of shells = 48
number of NR pGTOs = 192
number of NR cGTOs = 96
basis = stuttgartdz
ecp = stuttgartdz
CPU time:       349.12


******** <class 'pydmfet.dfet_ao.scf.EmbedSCF'> flags ********
method = EmbedSCF-RKS-RHF
initial guess = minao
damping factor = 0
level shift factor = 0
DIIS = <class 'pyscf.scf.diis.CDIIS'>
DIIS start cycle = 1
DIIS space = 8
SCF tol = 1e-09
SCF gradient tol = None
max. SCF cycles = 50
direct_scf = False
chkfile to save SCF result = /tmp/tmpkbtotsq5
max_memory 4000 MB (current use 548 MB)
XC functionals = pbe,pbe
small_rho_cutoff = 1e-07
radial grids: 
    Treutler-Ahlrichs (JCP 102, 346 (M4)) radial grids
    
becke partition: Becke, JCP, 88, 2547 (1988)
pruning grids: <function nwchem_prune at 0x2b9034858400>
grids dens level: 3
symmetrized grids: False
atomic radii adjust function: <function treutler_atomic_radii_adjust at 0x2b9034858378>
Set gradient conv threshold to 3.16228e-05
tot grids = 190200
init E= -9.27721634856661
HOMO: -0.24127607116556585 LUMO: -0.238964371503282
mo_energy:
[-0.3678 -0.2681 -0.2654 -0.2653 -0.2595 -0.2592 -0.258  -0.2413 -0.2413
 -0.239  -0.2382 -0.2313 -0.2299 -0.2163]
e_fermi =  -0.2407034099478771
[2.    1.992 1.986 1.985 1.954 1.952 1.939 1.061 1.057 0.828 0.759 0.264
 0.208 0.015]
entropy correction =  -0.03964715637272559
cycle= 1 E= -12.9227411392361  delta_E= -3.65  |g|= 0.855  |ddm|= 4.91
HOMO: -0.49386514131995457 LUMO: -0.44481464371931373
mo_energy:
[-0.863 -0.671 -0.615 -0.614 -0.535 -0.526 -0.525 -0.494 -0.494 -0.445
 -0.441 -0.441 -0.429 -0.423]
e_fermi =  -0.46937087505086683
[2.    2.    2.    2.    2.    2.    2.    1.986 1.985 0.015 0.007 0.006]
entropy correction =  -0.0017664848001246883
cycle= 2 E= -12.8319754852092  delta_E= 0.0908  |g|= 1.08  |ddm|= 3.39
HOMO: -0.3809616435964143 LUMO: -0.37014418530660775
mo_energy:
[-0.585 -0.442 -0.415 -0.414 -0.406 -0.401 -0.4   -0.381 -0.381 -0.37
 -0.37  -0.37  -0.36  -0.332]
e_fermi =  -0.3769278429831894
[2.    2.    1.999 1.999 1.994 1.983 1.982 1.39  1.383 0.41  0.405 0.386
 0.069]
entropy correction =  -0.030160619335215518
cycle= 3 E= -13.3602262485681  delta_E= -0.528  |g|= 0.213  |ddm|= 1.82
HOMO: -0.37008877777708293 LUMO: -0.36954008495379953
mo_energy:
[-0.555 -0.406 -0.4   -0.4   -0.39  -0.389 -0.385 -0.371 -0.37  -0.37
 -0.365 -0.365 -0.356 -0.326]
e_fermi =  -0.3700185593920312
[2.    1.998 1.995 1.995 1.965 1.956 1.904 1.053 1.007 0.952 0.54  0.517
 0.117]
entropy correction =  -0.03882108049705968
cycle= 4 E= -13.3825643354687  delta_E= -0.0223  |g|= 0.132  |ddm|= 0.793
HOMO: -0.36736686994435014 LUMO: -0.3651146756958
mo_energy:
[-0.551 -0.407 -0.398 -0.396 -0.388 -0.387 -0.384 -0.368 -0.367 -0.365
 -0.363 -0.362 -0.352 -0.322]
e_fermi =  -0.3671968841379966
[2.    1.999 1.995 1.994 1.969 1.96  1.931 1.128 1.017 0.795 0.585 0.53
 0.096]
entropy correction =  -0.03795915927959853
cycle= 5 E= -13.3209697132048  delta_E= 0.0616  |g|= 0.329  |ddm|= 0.676
HOMO: -0.36548029939745663 LUMO: -0.365008635526603
mo_energy:
[-0.55  -0.407 -0.394 -0.392 -0.387 -0.385 -0.384 -0.366 -0.365 -0.365
 -0.362 -0.361 -0.351 -0.32 ]
e_fermi =  -0.36598290111712645
[2.    1.999 1.993 1.989 1.97  1.959 1.949 1.014 0.95  0.903 0.612 0.564
 0.097]
entropy correction =  -0.038371452892703495
cycle= 6 E= -13.3959027064687  delta_E= -0.0749  |g|= 0.0414  |ddm|= 0.488
HOMO: -0.36603849218126727 LUMO: -0.3653921177434403
mo_energy:
[-0.55  -0.407 -0.394 -0.393 -0.387 -0.385 -0.384 -0.367 -0.366 -0.365
 -0.362 -0.362 -0.351 -0.321]
e_fermi =  -0.3663677522028043
[2.    1.999 1.992 1.991 1.97  1.954 1.948 1.059 0.967 0.903 0.571 0.554
 0.091]
entropy correction =  -0.038118182279357676
cycle= 7 E= -13.3933322783307  delta_E= 0.00257  |g|= 0.0668  |ddm|= 0.271
HOMO: -0.36732965225887065 LUMO: -0.3652088893853385
mo_energy:
[-0.55  -0.407 -0.395 -0.394 -0.387 -0.386 -0.385 -0.368 -0.367 -0.365
 -0.362 -0.362 -0.352 -0.322]
e_fermi =  -0.3669420232004419
[2.    1.999 1.992 1.991 1.961 1.959 1.943 1.061 1.039 0.828 0.576 0.562
 0.087]
entropy correction =  -0.03818584609967005
cycle= 8 E= -13.394704716557  delta_E= -0.00137  |g|= 0.0639  |ddm|= 0.186
HOMO: -0.3672952615543949 LUMO: -0.36520416180237075
mo_energy:
[-0.55  -0.407 -0.395 -0.394 -0.386 -0.386 -0.384 -0.367 -0.367 -0.365
 -0.362 -0.362 -0.351 -0.322]
e_fermi =  -0.36688283600062443
[2.    1.999 1.992 1.991 1.96  1.959 1.942 1.052 1.041 0.834 0.573 0.569
 0.088]
entropy correction =  -0.038262711791626436
cycle= 9 E= -13.3974441992681  delta_E= -0.00274  |g|= 0.016  |ddm|= 0.0995
HOMO: -0.3659561040252958 LUMO: -0.3645356474836811
mo_energy:
[-0.547 -0.405 -0.393 -0.392 -0.385 -0.385 -0.383 -0.366 -0.366 -0.365
 -0.362 -0.361 -0.351 -0.321]
e_fermi =  -0.36589440457400235
[2.    1.999 1.991 1.989 1.961 1.96  1.94  1.018 1.006 0.865 0.594 0.585
 0.09 ]
entropy correction =  -0.03861851369479431
cycle= 10 E= -13.3976196676139  delta_E= -0.000175  |g|= 0.00898  |ddm|= 0.0536
HOMO: -0.3656488971308456 LUMO: -0.3643965424129702
mo_energy:
[-0.547 -0.405 -0.393 -0.392 -0.385 -0.385 -0.383 -0.366 -0.366 -0.364
 -0.361 -0.361 -0.35  -0.32 ]
e_fermi =  -0.3656631685626756
[2.    1.999 1.991 1.989 1.961 1.961 1.939 1.006 0.999 0.874 0.599 0.59
 0.092]
entropy correction =  -0.03869688683206399
cycle= 11 E= -13.3976339655474  delta_E= -1.43e-05  |g|= 0.0086  |ddm|= 0.0309
HOMO: -0.3652722502531784 LUMO: -0.3641827817175877
mo_energy:
[-0.547 -0.404 -0.392 -0.391 -0.385 -0.385 -0.383 -0.365 -0.365 -0.364
 -0.361 -0.361 -0.35  -0.32 ]
e_fermi =  -0.36540712846506007
[2.    1.999 1.991 1.989 1.962 1.961 1.939 1.005 0.987 0.878 0.601 0.595
 0.092]
entropy correction =  -0.03874212782529263
cycle= 12 E= -13.3975946594685  delta_E= 3.93e-05  |g|= 0.00886  |ddm|= 0.0367
HOMO: -0.3656823106887764 LUMO: -0.36435251630708243
mo_energy:
[-0.547 -0.405 -0.393 -0.392 -0.385 -0.385 -0.383 -0.366 -0.366 -0.364
 -0.361 -0.361 -0.35  -0.32 ]
e_fermi =  -0.36565273868620807
[2.    1.999 1.991 1.989 1.961 1.96  1.94  1.006 1.003 0.871 0.597 0.59
 0.092]
entropy correction =  -0.038669010508483995
cycle= 13 E= -13.3976813145906  delta_E= -8.67e-05  |g|= 0.00183  |ddm|= 0.028
HOMO: -0.36571029179204384 LUMO: -0.36438068138625507
mo_energy:
[-0.547 -0.405 -0.393 -0.392 -0.385 -0.385 -0.383 -0.366 -0.366 -0.364
 -0.361 -0.361 -0.35  -0.32 ]
e_fermi =  -0.36568503856951207
[2.    1.999 1.991 1.989 1.962 1.96  1.94  1.008 1.003 0.87  0.597 0.589
 0.092]
entropy correction =  -0.038667276407882166
cycle= 14 E= -13.3976586410477  delta_E= 2.27e-05  |g|= 0.00595  |ddm|= 0.0127
HOMO: -0.36566374699572574 LUMO: -0.3643412783080793
mo_energy:
[-0.547 -0.405 -0.393 -0.392 -0.385 -0.385 -0.383 -0.366 -0.366 -0.364
 -0.361 -0.361 -0.35  -0.32 ]
e_fermi =  -0.3656378297040998
[2.    1.999 1.991 1.989 1.961 1.961 1.94  1.005 1.003 0.871 0.598 0.59
 0.092]
entropy correction =  -0.03867234130199698
cycle= 15 E= -13.3976846378814  delta_E= -2.6e-05  |g|= 0.000436  |ddm|= 0.00966
HOMO: -0.3657036388327865 LUMO: -0.3643675350750629
mo_energy:
[-0.547 -0.405 -0.393 -0.392 -0.385 -0.385 -0.383 -0.366 -0.366 -0.364
 -0.361 -0.361 -0.35  -0.32 ]
e_fermi =  -0.3656676340525596
[2.    1.999 1.991 1.989 1.961 1.961 1.94  1.005 1.004 0.871 0.598 0.589
 0.092]
entropy correction =  -0.03866959170102796
cycle= 16 E= -13.3976828890605  delta_E= 1.75e-06  |g|= 0.00137  |ddm|= 0.0044
HOMO: -0.3657090527121137 LUMO: -0.36437144341006894
mo_energy:
[-0.547 -0.405 -0.393 -0.392 -0.385 -0.385 -0.383 -0.366 -0.366 -0.364
 -0.361 -0.361 -0.35  -0.32 ]
e_fermi =  -0.3656722971826276
[2.    1.999 1.991 1.989 1.961 1.96  1.94  1.006 1.004 0.871 0.597 0.59
 0.092]
entropy correction =  -0.03867040440313682
cycle= 17 E= -13.3976845884835  delta_E= -1.7e-06  |g|= 0.000566  |ddm|= 0.00408
HOMO: -0.36575088439296144 LUMO: -0.3643938216098156
mo_energy:
[-0.547 -0.405 -0.393 -0.392 -0.385 -0.385 -0.383 -0.366 -0.366 -0.364
 -0.361 -0.361 -0.351 -0.32 ]
e_fermi =  -0.3657020559854571
[2.    1.999 1.991 1.989 1.961 1.96  1.94  1.006 1.005 0.87  0.597 0.589
 0.092]
entropy correction =  -0.03866111459688602
cycle= 18 E= -13.3976841378626  delta_E= 4.51e-07  |g|= 0.000942  |ddm|= 0.00254
HOMO: -0.36571312733413464 LUMO: -0.3643709980951288
mo_energy:
[-0.547 -0.405 -0.393 -0.392 -0.385 -0.385 -0.383 -0.366 -0.366 -0.364
 -0.361 -0.361 -0.35  -0.32 ]
e_fermi =  -0.3656741281827973
[2.    1.999 1.991 1.989 1.961 1.961 1.94  1.006 1.004 0.87  0.597 0.59
 0.092]
entropy correction =  -0.03866794502854138
cycle= 19 E= -13.3976848290465  delta_E= -6.91e-07  |g|= 6.69e-05  |ddm|= 0.00189
HOMO: -0.3657119515750515 LUMO: -0.364370070713053
mo_energy:
[-0.547 -0.405 -0.393 -0.392 -0.385 -0.385 -0.383 -0.366 -0.366 -0.364
 -0.361 -0.361 -0.35  -0.32 ]
e_fermi =  -0.3656731200512541
[2.    1.999 1.991 1.989 1.961 1.961 1.94  1.006 1.004 0.87  0.597 0.59
 0.092]
entropy correction =  -0.038667850033541895
cycle= 20 E= -13.3976848321039  delta_E= -3.06e-09  |g|= 2.64e-05  |ddm|= 0.000154
HOMO: -0.36571007575787173 LUMO: -0.3643691216162836
mo_energy:
[-0.547 -0.405 -0.393 -0.392 -0.385 -0.385 -0.383 -0.366 -0.366 -0.364
 -0.361 -0.361 -0.35  -0.32 ]
e_fermi =  -0.3656717374871584
[2.    1.999 1.991 1.989 1.961 1.961 1.94  1.006 1.004 0.87  0.597 0.59
 0.092]
entropy correction =  -0.03866820143180066
cycle= 21 E= -13.3976848326296  delta_E= -5.26e-10  |g|= 2.23e-06  |ddm|= 6.63e-05
HOMO: -0.3657099548106188 LUMO: -0.36436897529540807
mo_energy:
[-0.547 -0.405 -0.393 -0.392 -0.385 -0.385 -0.383 -0.366 -0.366 -0.364
 -0.361 -0.361 -0.35  -0.32 ]
e_fermi =  -0.3656715810139305
[2.    1.999 1.991 1.989 1.961 1.961 1.94  1.005 1.004 0.87  0.597 0.59
 0.092]
entropy correction =  -0.03866822863628757
Extra cycle  E= -13.3976848325036  delta_E= 1.26e-10  |g|= 1.24e-05  |ddm|= 3.49e-05
converged SCF energy = -13.3976848325036


******** <class 'pydmfet.dfet_ao.scf.EmbedSCF'> flags ********
method = EmbedSCF-RKS-RHF
initial guess = minao
damping factor = 0
level shift factor = 0
DIIS = <class 'pyscf.scf.diis.CDIIS'>
DIIS start cycle = 1
DIIS space = 8
SCF tol = 1e-09
SCF gradient tol = None
max. SCF cycles = 50
direct_scf = False
chkfile to save SCF result = /tmp/tmpfxn0yheg
max_memory 4000 MB (current use 4615 MB)
XC functionals = pbe,pbe
small_rho_cutoff = 1e-07
radial grids: 
    Treutler-Ahlrichs (JCP 102, 346 (M4)) radial grids
    
becke partition: Becke, JCP, 88, 2547 (1988)
pruning grids: <function nwchem_prune at 0x2b9034858400>
grids dens level: 3
symmetrized grids: False
atomic radii adjust function: <function treutler_atomic_radii_adjust at 0x2b9034858378>
Set gradient conv threshold to 3.16228e-05
tot grids = 190200
init E= -9.11813510836155
HOMO: -0.1810540701123475 LUMO: -0.17021860568668148
mo_energy:
[-0.295 -0.295 -0.264 -0.239 -0.19  -0.187 -0.187 -0.181 -0.181 -0.17
 -0.168 -0.157 -0.157 -0.148]
e_fermi =  -0.1741765481323442
[2.    2.    2.    2.    1.914 1.85  1.848 1.597 1.597 0.624 0.428 0.062
 0.059 0.011 0.011]
entropy correction =  -0.03198101093219887
cycle= 1 E= -12.4363598244873  delta_E= -3.32  |g|= 0.773  |ddm|= 5.23
HOMO: -0.1330021331706252 LUMO: -0.1299261205291096
mo_energy:
[-0.352 -0.352 -0.313 -0.261 -0.238 -0.238 -0.152 -0.133 -0.133 -0.13
 -0.111 -0.111 -0.109 -0.103]
e_fermi =  -0.12899887328549262
[2.000e+00 2.000e+00 2.000e+00 2.000e+00 2.000e+00 2.000e+00 1.981e+00
 1.391e+00 1.380e+00 1.092e+00 5.240e-02 4.984e-02 3.270e-02 1.017e-02
 7.692e-03 1.006e-03]
entropy correction =  -0.02364768803798909
cycle= 2 E= -12.3649335784458  delta_E= 0.0714  |g|= 0.979  |ddm|= 2.87
HOMO: -0.21638796237775157 LUMO: -0.20815344760768367
mo_energy:
[-0.375 -0.375 -0.342 -0.297 -0.24  -0.239 -0.234 -0.216 -0.216 -0.208
 -0.206 -0.206 -0.198 -0.189]
e_fermi =  -0.21316861423713585
[2.    2.    2.    2.    1.99  1.989 1.968 1.312 1.311 0.537 0.387 0.384
 0.088 0.017 0.017]
entropy correction =  -0.0327790460289026
cycle= 3 E= -12.7419391111282  delta_E= -0.377  |g|= 0.234  |ddm|= 1.35
HOMO: -0.21760051631338265 LUMO: -0.21289115367635578
mo_energy:
[-0.365 -0.364 -0.333 -0.292 -0.232 -0.227 -0.227 -0.218 -0.218 -0.213
 -0.213 -0.208 -0.2   -0.192]
e_fermi =  -0.2153700447686828
[2.    2.    2.    2.    1.93  1.832 1.812 1.222 1.219 0.757 0.749 0.359
 0.086 0.017 0.016]
entropy correction =  -0.0415977100740698
cycle= 4 E= -12.7678384829986  delta_E= -0.0259  |g|= 0.073  |ddm|= 0.549
HOMO: -0.21777990770563233 LUMO: -0.2131063142075139
mo_energy:
[-0.364 -0.364 -0.333 -0.291 -0.233 -0.227 -0.226 -0.218 -0.218 -0.213
 -0.212 -0.208 -0.2   -0.191]
e_fermi =  -0.21540252871304838
[2.    2.    2.    2.    1.937 1.811 1.793 1.24  1.233 0.774 0.716 0.384
 0.082 0.016 0.014]
entropy correction =  -0.041848900305965796
cycle= 5 E= -12.7503864793624  delta_E= 0.0175  |g|= 0.17  |ddm|= 0.355
HOMO: -0.21732830315504045 LUMO: -0.21264931655896
mo_energy:
[-0.364 -0.363 -0.332 -0.291 -0.232 -0.227 -0.226 -0.217 -0.217 -0.213
 -0.212 -0.208 -0.199 -0.191]
e_fermi =  -0.21508797121779885
[2.    2.    2.    2.    1.934 1.82  1.799 1.223 1.22  0.761 0.744 0.386
 0.079 0.017 0.016]
entropy correction =  -0.04187386282244364
cycle= 6 E= -12.7720972075874  delta_E= -0.0217  |g|= 0.0154  |ddm|= 0.264
HOMO: -0.21711053264632615 LUMO: -0.21237826280279246
mo_energy:
[-0.364 -0.363 -0.332 -0.291 -0.232 -0.227 -0.225 -0.217 -0.217 -0.212
 -0.212 -0.208 -0.199 -0.191]
e_fermi =  -0.2147888662519147
[2.    2.    2.    2.    1.932 1.83  1.783 1.237 1.228 0.764 0.735 0.379
 0.079 0.018 0.016]
entropy correction =  -0.04188371798243863
cycle= 7 E= -12.7718605577461  delta_E= 0.000237  |g|= 0.026  |ddm|= 0.0916
HOMO: -0.21719221168082353 LUMO: -0.21229521994747833
mo_energy:
[-0.363 -0.363 -0.332 -0.291 -0.232 -0.226 -0.226 -0.217 -0.217 -0.212
 -0.212 -0.208 -0.199 -0.191]
e_fermi =  -0.2148335508695559
[2.    2.    2.    2.    1.932 1.812 1.802 1.233 1.232 0.751 0.747 0.378
 0.079 0.017 0.017]
entropy correction =  -0.04188968293467776
cycle= 8 E= -12.7723588119312  delta_E= -0.000498  |g|= 0.00787  |ddm|= 0.0696
HOMO: -0.21729736806784078 LUMO: -0.21243864618168223
mo_energy:
[-0.364 -0.363 -0.332 -0.291 -0.232 -0.226 -0.226 -0.217 -0.217 -0.212
 -0.212 -0.208 -0.199 -0.191]
e_fermi =  -0.21493725129049682
[2.    2.    2.    2.    1.932 1.812 1.8   1.232 1.232 0.755 0.747 0.377
 0.079 0.017 0.017]
entropy correction =  -0.04190814488390517
cycle= 9 E= -12.7723354144318  delta_E= 2.34e-05  |g|= 0.00968  |ddm|= 0.0194
HOMO: -0.21741201882896485 LUMO: -0.21258417431121857
mo_energy:
[-0.364 -0.363 -0.332 -0.291 -0.232 -0.226 -0.226 -0.217 -0.217 -0.213
 -0.213 -0.208 -0.199 -0.191]
e_fermi =  -0.21506636783787644
[2.    2.    2.    2.    1.932 1.806 1.803 1.232 1.23  0.757 0.751 0.376
 0.079 0.017 0.017]
entropy correction =  -0.04194327311424416
cycle= 10 E= -12.7724063164558  delta_E= -7.09e-05  |g|= 0.00159  |ddm|= 0.0177
HOMO: -0.2174139035031373 LUMO: -0.21256054334297939
mo_energy:
[-0.364 -0.363 -0.332 -0.291 -0.232 -0.226 -0.226 -0.217 -0.217 -0.213
 -0.213 -0.208 -0.199 -0.191]
e_fermi =  -0.21506393566627688
[2.    2.    2.    2.    1.932 1.805 1.804 1.232 1.231 0.755 0.753 0.376
 0.079 0.017 0.017]
entropy correction =  -0.04194228854810497
cycle= 11 E= -12.7724079657864  delta_E= -1.65e-06  |g|= 0.00119  |ddm|= 0.00585
HOMO: -0.21740201028581108 LUMO: -0.21254213818447673
mo_energy:
[-0.364 -0.363 -0.332 -0.291 -0.232 -0.226 -0.226 -0.217 -0.217 -0.213
 -0.213 -0.208 -0.199 -0.191]
e_fermi =  -0.21505020135596892
[2.    2.    2.    2.    1.932 1.805 1.804 1.232 1.231 0.754 0.754 0.376
 0.079 0.017 0.017]
entropy correction =  -0.04194280268396078
cycle= 12 E= -12.7724073102629  delta_E= 6.56e-07  |g|= 0.00148  |ddm|= 0.00483
HOMO: -0.2173808207343233 LUMO: -0.21252247916902867
mo_energy:
[-0.363 -0.363 -0.332 -0.291 -0.232 -0.226 -0.226 -0.217 -0.217 -0.213
 -0.213 -0.208 -0.199 -0.191]
e_fermi =  -0.21503049150121395
[2.    2.    2.    2.    1.932 1.806 1.804 1.232 1.231 0.754 0.753 0.376
 0.079 0.017 0.017]
entropy correction =  -0.0419282328380543
cycle= 13 E= -12.7724090068311  delta_E= -1.7e-06  |g|= 7.54e-05  |ddm|= 0.0033
HOMO: -0.21738034436425296 LUMO: -0.21252155050458957
mo_energy:
[-0.363 -0.363 -0.332 -0.291 -0.232 -0.226 -0.226 -0.217 -0.217 -0.213
 -0.213 -0.208 -0.199 -0.191]
e_fermi =  -0.21502937966860025
[2.    2.    2.    2.    1.932 1.806 1.804 1.232 1.231 0.754 0.753 0.376
 0.079 0.017 0.017]
entropy correction =  -0.041929878891220164
cycle= 14 E= -12.772409010519  delta_E= -3.69e-09  |g|= 3.55e-05  |ddm|= 0.000261
HOMO: -0.21738087213820667 LUMO: -0.21252234417845067
mo_energy:
[-0.363 -0.363 -0.332 -0.291 -0.232 -0.226 -0.226 -0.217 -0.217 -0.213
 -0.213 -0.208 -0.199 -0.191]
e_fermi =  -0.21502996446312572
[2.    2.    2.    2.    1.932 1.806 1.804 1.232 1.231 0.754 0.753 0.376
 0.079 0.017 0.017]
entropy correction =  -0.04192996528606686
cycle= 15 E= -12.7724090116381  delta_E= -1.12e-09  |g|= 7.15e-06  |ddm|= 0.000108
HOMO: -0.2173815617621158 LUMO: -0.21252303138628822
mo_energy:
[-0.363 -0.363 -0.332 -0.291 -0.232 -0.226 -0.226 -0.217 -0.217 -0.213
 -0.213 -0.208 -0.199 -0.191]
e_fermi =  -0.21503076514984892
[2.    2.    2.    2.    1.932 1.806 1.804 1.232 1.231 0.754 0.753 0.376
 0.079 0.017 0.017]
entropy correction =  -0.04192980919472168
cycle= 16 E= -12.7724090107418  delta_E= 8.96e-10  |g|= 3.42e-05  |ddm|= 8.08e-05
HOMO: -0.21738148166195467 LUMO: -0.21252311851399636
mo_energy:
[-0.363 -0.363 -0.332 -0.291 -0.232 -0.226 -0.226 -0.217 -0.217 -0.213
 -0.213 -0.208 -0.199 -0.191]
e_fermi =  -0.2150306943209877
[2.    2.    2.    2.    1.932 1.806 1.804 1.232 1.231 0.754 0.753 0.376
 0.079 0.017 0.017]
entropy correction =  -0.04192984670799661
cycle= 17 E= -12.772409011631  delta_E= -8.89e-10  |g|= 8.34e-06  |ddm|= 7.52e-05
HOMO: -0.21738122287833472 LUMO: -0.2125225766818789
mo_energy:
[-0.363 -0.363 -0.332 -0.291 -0.232 -0.226 -0.226 -0.217 -0.217 -0.213
 -0.213 -0.208 -0.199 -0.191]
e_fermi =  -0.21503033396809068
[2.    2.    2.    2.    1.932 1.806 1.804 1.232 1.231 0.754 0.753 0.376
 0.079 0.017 0.017]
entropy correction =  -0.04192980838344409
Extra cycle  E= -12.7724090092872  delta_E= 2.34e-09  |g|= 5.52e-05  |ddm|= 0.000121
converged SCF energy = -12.7724090092872
|umat| =  2.738856413345719
rks_ao.ne_frozen =  0
Set gradient conv threshold to 3.16228e-05
Initial guess from hcore.
HOMO:  -3.5059245575685427 LUMO:  -3.3116405379128606
Fermi energy:      -3.4070343214
[2. 2. 2. 2. 2. 2. 2. 2. 2.]
tot grids = 190200
init E= -10.1113802229316
HOMO:  -0.06752499178191915 LUMO:  -0.06720847146000569
Fermi energy:      -0.0716460554
[2.     2.     2.     2.     2.     2.     1.9948 1.9461 0.6097 0.5832
 0.4416 0.4246]
entropy correction =  -0.02405464450535014
cycle= 1 E= -10.1854748982995  delta_E= -0.0741  |g|= 2.77  |ddm|= 7.89
HOMO:  -0.7811373857286713 LUMO:  -0.6509889536213831
Fermi energy:      -0.7147306969
[2. 2. 2. 2. 2. 2. 2. 2. 2.]
entropy correction =  -9.601160409736717e-07
cycle= 2 E= -11.5196873775847  delta_E= -1.33  |g|= 2.04  |ddm|=  6.5
HOMO:  -0.4511495389420551 LUMO:  -0.41821132166993
Fermi energy:      -0.4353277732
[2.0000e+00 2.0000e+00 2.0000e+00 2.0000e+00 1.9997e+00 1.9971e+00
 1.9970e+00 1.9201e+00 1.9189e+00 6.3151e-02 6.2119e-02 2.4451e-02
 1.6746e-02 6.6396e-04]
entropy correction =  -0.007570006531357699
cycle= 3 E= -13.2276422943621  delta_E= -1.71  |g|= 0.55  |ddm|= 3.82
HOMO:  -0.36568747949438885 LUMO:  -0.36506756693449655
Fermi energy:      -0.3679341191
[2.0000e+00 1.9991e+00 1.9965e+00 1.9958e+00 1.9763e+00 1.9757e+00
 1.8907e+00 1.2625e+00 7.7904e-01 7.2095e-01 6.1137e-01 5.6185e-01
 2.2987e-01 1.9402e-04]
entropy correction =  -0.039210954715601924
cycle= 4 E= -13.3663110622754  delta_E= -0.139  |g|= 0.193  |ddm|= 1.67
HOMO:  -0.3689407484242518 LUMO:  -0.3627044579579891
Fermi energy:      -0.3676804047
[2.0000e+00 1.9999e+00 1.9990e+00 1.9987e+00 1.9847e+00 1.9788e+00
 1.9511e+00 1.4484e+00 1.1254e+00 5.3978e-01 4.6927e-01 4.3464e-01
 7.0266e-02 1.6085e-04]
entropy correction =  -0.03307799877393728
cycle= 5 E= -12.9958772048924  delta_E= 0.37  |g|= 0.759  |ddm|=  1.4
HOMO:  -0.3732173033593951 LUMO:  -0.36865473156892453
Fermi energy:      -0.3715975649
[2.0000e+00 1.9999e+00 1.9975e+00 1.9957e+00 1.9724e+00 1.9677e+00
 1.9607e+00 1.1812e+00 1.1606e+00 7.1393e-01 4.9400e-01 4.7241e-01
 8.3958e-02 2.0318e-04]
entropy correction =  -0.03567464047551342
cycle= 6 E= -13.382828293005  delta_E= -0.387  |g|= 0.138  |ddm|= 1.06
HOMO:  -0.37157396649539565 LUMO:  -0.37035067575236785
Fermi energy:      -0.3709012451
[2.0000e+00 1.9995e+00 1.9966e+00 1.9897e+00 1.9755e+00 1.9493e+00
 1.9282e+00 1.2175e+00 1.0672e+00 9.4500e-01 5.5125e-01 3.1298e-01
 6.6984e-02 2.2314e-04]
entropy correction =  -0.03608064467805482
cycle= 7 E= -13.3716557047173  delta_E= 0.0112  |g|= 0.158  |ddm|= 0.559
HOMO:  -0.3700890858485838 LUMO:  -0.36725871907637614
Fermi energy:      -0.3694682463
[2.0000e+00 1.9993e+00 1.9934e+00 1.9917e+00 1.9607e+00 1.9546e+00
 1.9390e+00 1.1605e+00 1.0620e+00 7.8257e-01 5.4276e-01 5.3362e-01
 7.9670e-02 2.3742e-04]
entropy correction =  -0.037678434806911174
cycle= 8 E= -13.39109224304  delta_E= -0.0194  |g|= 0.0937  |ddm|= 0.479
HOMO:  -0.3684933446510848 LUMO:  -0.36643782010183995
Fermi energy:      -0.3681516865
[2.0000e+00 1.9992e+00 1.9928e+00 1.9901e+00 1.9643e+00 1.9521e+00
 1.9394e+00 1.1133e+00 1.0342e+00 8.3027e-01 5.5733e-01 5.4440e-01
 8.2493e-02 2.3450e-04]
entropy correction =  -0.03805199124030191
cycle= 9 E= -13.3907190213747  delta_E= 0.000373  |g|= 0.0959  |ddm|= 0.268
HOMO:  -0.3642325482284211 LUMO:  -0.3638415726008642
Fermi energy:      -0.3649499364
[2.0000e+00 1.9991e+00 1.9901e+00 1.9864e+00 1.9633e+00 1.9623e+00
 1.9373e+00 1.0317e+00 9.2838e-01 8.8962e-01 6.3034e-01 5.9032e-01
 9.0839e-02 2.2614e-04]
entropy correction =  -0.03886195592302169
cycle= 10 E= -13.3964957890208  delta_E= -0.00578  |g|= 0.035  |ddm|= 0.234
HOMO:  -0.3644461636190279 LUMO:  -0.36372368804248634
Fermi energy:      -0.3647416486
[2.0000e+00 1.9992e+00 1.9901e+00 1.9882e+00 1.9623e+00 1.9620e+00
 1.9399e+00 9.8152e-01 9.7046e-01 8.9855e-01 6.1028e-01 6.0310e-01
 9.4232e-02 2.2525e-04]
entropy correction =  -0.03885713097879272
cycle= 11 E= -13.3971184838801  delta_E= -0.000623  |g|= 0.0307  |ddm|= 0.122
HOMO:  -0.3646511395865152 LUMO:  -0.3637678793058773
Fermi energy:      -0.3649095129
[2.0000e+00 1.9992e+00 1.9905e+00 1.9885e+00 1.9623e+00 1.9613e+00
 1.9403e+00 1.0005e+00 9.7417e-01 8.8633e-01 6.0417e-01 5.9932e-01
 9.3121e-02 2.2753e-04]
entropy correction =  -0.03877390825335978
cycle= 12 E= -13.3973187148872  delta_E= -0.0002  |g|= 0.0254  |ddm|= 0.0905
HOMO:  -0.3657159683858679 LUMO:  -0.36436627478112843
Fermi energy:      -0.3656641299
[2.0000e+00 1.9992e+00 1.9912e+00 1.9893e+00 1.9612e+00 1.9602e+00
 1.9393e+00 1.0099e+00 1.0052e+00 8.7094e-01 5.9456e-01 5.8694e-01
 9.1821e-02 2.3109e-04]
entropy correction =  -0.03866510723915644
cycle= 13 E= -13.3977924007091  delta_E= -0.000474  |g|= 0.00225  |ddm|= 0.0544
HOMO:  -0.36576268254934463 LUMO:  -0.3643953224769696
Fermi energy:      -0.3657076228
[2.0000e+00 1.9992e+00 1.9911e+00 1.9894e+00 1.9612e+00 1.9606e+00
 1.9399e+00 1.0085e+00 1.0055e+00 8.6952e-01 5.9625e-01 5.8730e-01
 9.1509e-02 2.3026e-04]
entropy correction =  -0.03865452817521243
cycle= 14 E= -13.3977866919561  delta_E= 5.71e-06  |g|= 0.00318  |ddm|= 0.0133
HOMO:  -0.3657767686814814 LUMO:  -0.36440590781750576
Fermi energy:      -0.3657268309
[2.0000e+00 1.9992e+00 1.9911e+00 1.9892e+00 1.9615e+00 1.9604e+00
 1.9402e+00 1.0087e+00 1.0050e+00 8.6867e-01 5.9581e-01 5.8855e-01
 9.1393e-02 2.2981e-04]
entropy correction =  -0.038648215499437345
cycle= 15 E= -13.3977952297341  delta_E= -8.54e-06  |g|= 0.00135  |ddm|= 0.0113
HOMO:  -0.36580668161010566 LUMO:  -0.3644299316484109
Fermi energy:      -0.3657438597
[2.0000e+00 1.9992e+00 1.9911e+00 1.9892e+00 1.9613e+00 1.9604e+00
 1.9397e+00 1.0078e+00 1.0063e+00 8.6936e-01 5.9582e-01 5.8810e-01
 9.1466e-02 2.3044e-04]
entropy correction =  -0.03866042368822852
cycle= 16 E= -13.3977972722121  delta_E= -2.04e-06  |g|= 0.000324  |ddm|= 0.00422
HOMO:  -0.36578839481298847 LUMO:  -0.3644243828537142
Fermi energy:      -0.3657337385
[2.0000e+00 1.9992e+00 1.9911e+00 1.9892e+00 1.9614e+00 1.9603e+00
 1.9396e+00 1.0079e+00 1.0055e+00 8.6981e-01 5.9546e-01 5.8880e-01
 9.1511e-02 2.3053e-04]
entropy correction =  -0.03866569848767913
cycle= 17 E= -13.397795533484  delta_E= 1.74e-06  |g|= 0.0014  |ddm|= 0.00391
HOMO:  -0.3657881491354873 LUMO:  -0.36442099383580256
Fermi energy:      -0.3657311199
[2.0000e+00 1.9992e+00 1.9911e+00 1.9892e+00 1.9613e+00 1.9604e+00
 1.9397e+00 1.0076e+00 1.0057e+00 8.6973e-01 5.9592e-01 5.8835e-01
 9.1513e-02 2.3042e-04]
entropy correction =  -0.03866355326086634
cycle= 18 E= -13.3977973177264  delta_E= -1.78e-06  |g|= 0.000231  |ddm|= 0.00353
HOMO:  -0.3657744933284015 LUMO:  -0.36441344454751706
Fermi energy:      -0.3657211562
[2.0000e+00 1.9992e+00 1.9911e+00 1.9892e+00 1.9613e+00 1.9604e+00
 1.9397e+00 1.0074e+00 1.0053e+00 8.6997e-01 5.9614e-01 5.8850e-01
 9.1534e-02 2.3043e-04]
entropy correction =  -0.03866657788980431
cycle= 19 E= -13.3977973037343  delta_E= 1.4e-08  |g|= 0.000241  |ddm|= 0.00102
HOMO:  -0.3657782101353915 LUMO:  -0.36441394906095176
Fermi energy:      -0.3657218471
[2.0000e+00 1.9992e+00 1.9911e+00 1.9892e+00 1.9613e+00 1.9604e+00
 1.9397e+00 1.0071e+00 1.0056e+00 8.6995e-01 5.9601e-01 5.8855e-01
 9.1538e-02 2.3041e-04]
entropy correction =  -0.03866574460331701
cycle= 20 E= -13.3977972596149  delta_E= 4.41e-08  |g|= 0.000381  |ddm|= 0.000976
HOMO:  -0.36577965687172737 LUMO:  -0.36441537781319433
Fermi energy:      -0.3657234966
[2.0000e+00 1.9992e+00 1.9911e+00 1.9892e+00 1.9613e+00 1.9604e+00
 1.9397e+00 1.0073e+00 1.0056e+00 8.6993e-01 5.9600e-01 5.8849e-01
 9.1537e-02 2.3041e-04]
entropy correction =  -0.03866546095994581
cycle= 21 E= -13.3977973606999  delta_E= -1.01e-07  |g|= 8.31e-05  |ddm|= 0.00063
HOMO:  -0.3657797708365779 LUMO:  -0.36441559036642907
Fermi energy:      -0.3657238437
[2.0000e+00 1.9992e+00 1.9911e+00 1.9892e+00 1.9613e+00 1.9604e+00
 1.9397e+00 1.0073e+00 1.0056e+00 8.6992e-01 5.9601e-01 5.8849e-01
 9.1534e-02 2.3042e-04]
entropy correction =  -0.03866552520448917
cycle= 22 E= -13.3977973498924  delta_E= 1.08e-08  |g|= 0.000154  |ddm|= 0.000366
HOMO:  -0.3657831107338497 LUMO:  -0.3644176765561735
Fermi energy:      -0.3657264950
[2.0000e+00 1.9992e+00 1.9911e+00 1.9892e+00 1.9613e+00 1.9604e+00
 1.9397e+00 1.0074e+00 1.0057e+00 8.6986e-01 5.9596e-01 5.8843e-01
 9.1529e-02 2.3042e-04]
entropy correction =  -0.038664872304600945
cycle= 23 E= -13.3977973657298  delta_E= -1.58e-08  |g|= 1.45e-05  |ddm|= 0.000277
HOMO:  -0.3657833190657529 LUMO:  -0.36441765585119484
Fermi energy:      -0.3657265655
[2.0000e+00 1.9992e+00 1.9911e+00 1.9892e+00 1.9613e+00 1.9604e+00
 1.9397e+00 1.0074e+00 1.0057e+00 8.6985e-01 5.9596e-01 5.8843e-01
 9.1528e-02 2.3042e-04]
entropy correction =  -0.03866477759776999
cycle= 24 E= -13.3977973658838  delta_E= -1.54e-10  |g|= 7.65e-06  |ddm|= 4.78e-05
HOMO:  -0.36578507421479467 LUMO:  -0.3644187486411149
Fermi energy:      -0.3657280423
[2.0000e+00 1.9992e+00 1.9911e+00 1.9892e+00 1.9613e+00 1.9604e+00
 1.9397e+00 1.0074e+00 1.0057e+00 8.6981e-01 5.9594e-01 5.8841e-01
 9.1524e-02 2.3042e-04]
entropy correction =  -0.03866440134262302
Extra cycle  E= -13.397797364084  delta_E= 1.8e-09  |g|= 4.53e-05  |ddm|= 0.000129
entropy correction =  -0.03866440134262302
rks_ao.ne_frozen =  0
Set gradient conv threshold to 3.16228e-05
Initial guess from hcore.
HOMO:  -2.5697743527686163 LUMO:  -2.5693825651871167
Fermi energy:      -2.5702533231
[2.0000e+00 2.0000e+00 2.0000e+00 2.0000e+00 2.0000e+00 2.0000e+00
 2.0000e+00 1.9973e+00 9.5214e-01 9.1314e-01 6.4830e-02 6.2218e-02
 5.0578e-03 4.5523e-03 7.7043e-04]
tot grids = 190200
init E= -9.69948887275666
HOMO:  0.020186703579992523 LUMO:  0.022956629530916213
Fermi energy:       0.0201249676
[2.     2.     2.     2.     2.     2.     1.9952 1.3489 0.9938 0.7242
 0.4086 0.2283 0.1136 0.089  0.0467 0.0381 0.0078 0.003  0.0027]
entropy correction =  -0.03509311772717865
cycle= 1 E= -10.979632143526  delta_E= -1.28  |g|= 2.09  |ddm|= 9.47
HOMO:  -0.449854011576826 LUMO:  -0.4413372723547468
Fermi energy:      -0.4450201192
[2.0000e+00 2.0000e+00 2.0000e+00 2.0000e+00 2.0000e+00 2.0000e+00
 1.9992e+00 1.5275e+00 1.4490e+00 6.4751e-01 1.8221e-01 1.6191e-01
 3.0516e-02 1.9864e-03]
entropy correction =  -0.02442257774864774
cycle= 2 E= -11.0533606887673  delta_E= -0.0737  |g|= 2.12  |ddm|= 9.27
HOMO:  -0.29510562391681955 LUMO:  -0.2816222050776201
Fermi energy:      -0.2871233041
[2.     2.     2.     2.     1.9962 1.9823 1.9733 1.6885 1.663  0.4994
 0.0703 0.0682 0.051  0.0039 0.0037]
entropy correction =  -0.020306331846924004
cycle= 3 E= -12.3047175055319  delta_E= -1.25  |g|= 0.868  |ddm|= 1.84
HOMO:  -0.2574308550842771 LUMO:  -0.2546029008185214
Fermi energy:      -0.2559643161
[2.0000e+00 2.0000e+00 2.0000e+00 2.0000e+00 1.9991e+00 1.9536e+00
 1.9033e+00 1.7183e+00 1.1456e+00 8.6469e-01 1.6716e-01 1.6635e-01
 7.9324e-02 1.7659e-03 7.2454e-04 1.1690e-04]
entropy correction =  -0.02832528519583264
cycle= 4 E= -11.4949521854777  delta_E= 0.81  |g|= 1.31  |ddm|= 2.16
HOMO:  -0.23694809020706978 LUMO:  -0.23075756624942584
Fermi energy:      -0.2343779699
[2.0000e+00 2.0000e+00 2.0000e+00 2.0000e+00 1.9700e+00 1.9351e+00
 1.8523e+00 1.2985e+00 1.2515e+00 6.5299e-01 6.3768e-01 2.9309e-01
 7.1245e-02 2.3289e-02 1.4035e-02 2.6763e-04]
entropy correction =  -0.037283026205939235
cycle= 5 E= -12.7595759011223  delta_E= -1.26  |g|= 0.123  |ddm|= 2.08
HOMO:  -0.2158592368319589 LUMO:  -0.2143478283540553
Fermi energy:      -0.2149500561
[2.0000e+00 2.0000e+00 2.0000e+00 2.0000e+00 1.9568e+00 1.9400e+00
 1.7577e+00 1.5256e+00 1.0907e+00 9.3985e-01 4.1225e-01 2.4414e-01
 1.0277e-01 1.7686e-02 1.2262e-02 3.0238e-04]
entropy correction =  -0.03708162836106983
cycle= 6 E= -12.5658694873439  delta_E= 0.194  |g|= 0.515  |ddm|= 1.33
HOMO:  -0.2167244358748806 LUMO:  -0.2122819081883423
Fermi energy:      -0.2142092378
[2.0000e+00 2.0000e+00 2.0000e+00 2.0000e+00 1.9301e+00 1.7687e+00
 1.7621e+00 1.2742e+00 1.2463e+00 8.0962e-01 7.3610e-01 3.5030e-01
 8.5939e-02 2.0773e-02 1.5379e-02 3.9262e-04]
entropy correction =  -0.042708329675038736
cycle= 7 E= -12.766444906044  delta_E= -0.201  |g|= 0.0812  |ddm|= 1.01
HOMO:  -0.21722832688089794 LUMO:  -0.21304233507658685
Fermi energy:      -0.2148594008
[2.0000e+00 2.0000e+00 2.0000e+00 2.0000e+00 1.9355e+00 1.8486e+00
 1.7228e+00 1.2388e+00 1.2326e+00 8.2027e-01 7.1092e-01 3.7526e-01
 8.1055e-02 1.7526e-02 1.6359e-02 3.5886e-04]
entropy correction =  -0.04222726953921836
cycle= 8 E= -12.7655094182995  delta_E= 0.000935  |g|= 0.0937  |ddm|= 0.278
HOMO:  -0.21725026098974567 LUMO:  -0.21237961629090643
Fermi energy:      -0.2148902836
[2.0000e+00 2.0000e+00 2.0000e+00 2.0000e+00 1.9339e+00 1.8029e+00
 1.7948e+00 1.2404e+00 1.2317e+00 7.5408e-01 7.4974e-01 3.7945e-01
 7.9205e-02 1.6823e-02 1.6600e-02 3.5666e-04]
entropy correction =  -0.04202756973369698
cycle= 9 E= -12.7689085945466  delta_E= -0.0034  |g|= 0.0679  |ddm|= 0.214
HOMO:  -0.21637154891792934 LUMO:  -0.21152905752368836
Fermi energy:      -0.2140375223
[2.0000e+00 2.0000e+00 2.0000e+00 2.0000e+00 1.9316e+00 1.8205e+00
 1.8021e+00 1.2310e+00 1.2293e+00 7.5429e-01 7.3770e-01 3.8010e-01
 7.9321e-02 1.7079e-02 1.6675e-02 3.6660e-04]
entropy correction =  -0.04179950927188072
cycle= 10 E= -12.7719393843672  delta_E= -0.00303  |g|= 0.0243  |ddm|= 0.122
HOMO:  -0.21714737241591955 LUMO:  -0.2122711792955841
Fermi energy:      -0.2147847839
[2.0000e+00 2.0000e+00 2.0000e+00 2.0000e+00 1.9318e+00 1.8098e+00
 1.8000e+00 1.2352e+00 1.2320e+00 7.5380e-01 7.4836e-01 3.7598e-01
 7.8857e-02 1.7537e-02 1.6385e-02 3.5734e-04]
entropy correction =  -0.041918600331646794
cycle= 11 E= -12.7720917704322  delta_E= -0.000152  |g|= 0.0209  |ddm|= 0.0744
HOMO:  -0.2173441693387803 LUMO:  -0.21255573393056962
Fermi energy:      -0.2149973128
[2.0000e+00 2.0000e+00 2.0000e+00 2.0000e+00 1.9319e+00 1.8087e+00
 1.7963e+00 1.2331e+00 1.2305e+00 7.6058e-01 7.5066e-01 3.7526e-01
 7.8821e-02 1.7177e-02 1.6719e-02 3.5408e-04]
entropy correction =  -0.04199380357231014
cycle= 12 E= -12.7723730876236  delta_E= -0.000281  |g|= 0.00731  |ddm|= 0.0462
HOMO:  -0.2173707059496709 LUMO:  -0.2125354866253341
Fermi energy:      -0.2150281709
[2.0000e+00 2.0000e+00 2.0000e+00 2.0000e+00 1.9321e+00 1.8068e+00
 1.8024e+00 1.2322e+00 1.2301e+00 7.5577e-01 7.5214e-01 3.7565e-01
 7.8668e-02 1.7201e-02 1.6640e-02 3.5388e-04]
entropy correction =  -0.04193891360818114
cycle= 13 E= -12.7724041561607  delta_E= -3.11e-05  |g|= 0.00355  |ddm|= 0.0215
HOMO:  -0.21739831032786947 LUMO:  -0.21254870505277254
Fermi energy:      -0.2150509211
[2.0000e+00 2.0000e+00 2.0000e+00 2.0000e+00 1.9321e+00 1.8064e+00
 1.8045e+00 1.2316e+00 1.2305e+00 7.5487e-01 7.5135e-01 3.7594e-01
 7.8536e-02 1.7252e-02 1.6567e-02 3.5390e-04]
entropy correction =  -0.041915583866475405
cycle= 14 E= -12.7724129271448  delta_E= -8.77e-06  |g|= 0.0013  |ddm|= 0.00881
HOMO:  -0.21738026127542237 LUMO:  -0.21252077846483802
Fermi energy:      -0.2150307888
[2.0000e+00 2.0000e+00 2.0000e+00 2.0000e+00 1.9320e+00 1.8061e+00
 1.8042e+00 1.2319e+00 1.2307e+00 7.5414e-01 7.5231e-01 3.7590e-01
 7.8560e-02 1.7236e-02 1.6608e-02 3.5435e-04]
entropy correction =  -0.04192443664085323
cycle= 15 E= -12.7724135596554  delta_E= -6.33e-07  |g|= 0.00102  |ddm|= 0.00449
HOMO:  -0.2173814274457026 LUMO:  -0.21251969023932288
Fermi energy:      -0.2150300269
[2.0000e+00 2.0000e+00 2.0000e+00 2.0000e+00 1.9320e+00 1.8058e+00
 1.8042e+00 1.2318e+00 1.2309e+00 7.5411e-01 7.5251e-01 3.7590e-01
 7.8561e-02 1.7226e-02 1.6621e-02 3.5435e-04]
entropy correction =  -0.041927587552759785
cycle= 16 E= -12.7724143686643  delta_E= -8.09e-07  |g|= 0.000204  |ddm|= 0.00252
HOMO:  -0.217385490803159 LUMO:  -0.21252628937160667
Fermi energy:      -0.2150344415
[2.0000e+00 2.0000e+00 2.0000e+00 2.0000e+00 1.9320e+00 1.8056e+00
 1.8041e+00 1.2318e+00 1.2309e+00 7.5432e-01 7.5258e-01 3.7592e-01
 7.8553e-02 1.7227e-02 1.6618e-02 3.5422e-04]
entropy correction =  -0.04193116254040466
cycle= 17 E= -12.7724144018921  delta_E= -3.32e-08  |g|= 3.88e-05  |ddm|= 0.000517
HOMO:  -0.21738542090561044 LUMO:  -0.21252648303874572
Fermi energy:      -0.2150343505
[2.0000e+00 2.0000e+00 2.0000e+00 2.0000e+00 1.9320e+00 1.8057e+00
 1.8041e+00 1.2318e+00 1.2309e+00 7.5434e-01 7.5257e-01 3.7590e-01
 7.8554e-02 1.7228e-02 1.6617e-02 3.5423e-04]
entropy correction =  -0.04193118251625983
cycle= 18 E= -12.7724144028891  delta_E= -9.97e-10  |g|= 1.87e-05  |ddm|= 0.000152
HOMO:  -0.21738525883411444 LUMO:  -0.21252566597069977
Fermi energy:      -0.2150342797
[2.0000e+00 2.0000e+00 2.0000e+00 2.0000e+00 1.9320e+00 1.8056e+00
 1.8041e+00 1.2318e+00 1.2309e+00 7.5427e-01 7.5262e-01 3.7591e-01
 7.8551e-02 1.7227e-02 1.6617e-02 3.5422e-04]
entropy correction =  -0.04193062311231365
Extra cycle  E= -12.7724143860475  delta_E= 1.68e-08  |g|= 0.000149  |ddm|= 0.000282
degenerate subspace detected:
nsub = 2
subspace 1:
8, 9, 
subspace 2:
11, 12, 

 Adding contributions from fluctuation of occupation numbers.
degenerate subspace detected:
nsub = 4
subspace 1:
1, 2, 
subspace 2:
6, 7, 
subspace 3:
8, 9, 
subspace 4:
10, 11, 

 Adding contributions from fluctuation of occupation numbers.
entropy correction =  -0.04193062311231365
2-norm (grad),       max(grad):
0.05102484905056584 ,  0.004277716792068488
time of hessian construction : 37.630  (cpu),  0.989  (wall) 
time of hessian construction : 29.990  (cpu),  0.760  (wall) 
f =  0.0013017676103165149
|umat| =  3.1228402046974444
rks_ao.ne_frozen =  0
Set gradient conv threshold to 3.16228e-05
Initial guess from hcore.
HOMO:  -3.6286937067211045 LUMO:  -3.602382682608112
Fermi energy:      -3.6155388832
[2.     2.     2.     2.     2.     2.     2.     2.     1.8657 0.1343]
tot grids = 190200
init E= -26.5208988154375
HOMO:  -0.4826766673307147 LUMO:  -0.45774398019305895
Fermi energy:      -0.4702125930
[2.0000e+00 2.0000e+00 2.0000e+00 2.0000e+00 2.0000e+00 2.0000e+00
 2.0000e+00 2.0000e+00 1.8473e+00 1.5260e-01 1.2765e-04]
entropy correction =  -0.005401219915505334
cycle= 1 E= -28.096552729799  delta_E= -1.58  |g|= 2.13  |ddm|= 39.9
HOMO:  -1.0423004717698203 LUMO:  -1.0207550801610414
Fermi energy:      -1.0315277760
[2.     2.     2.     2.     2.     2.     2.     2.     1.7922 0.2078]
entropy correction =  -0.006671708977792396
cycle= 2 E= -28.7982389660316  delta_E= -0.702  |g|= 1.62  |ddm|= 19.2
HOMO:  -0.8275383964614396 LUMO:  -0.7954890734907264
Fermi energy:      -0.8111070402
[2.     2.     2.     2.     2.     2.     2.     1.9878 1.9279 0.0843]
entropy correction =  -0.0036706772013184903
cycle= 3 E= -29.6969317091837  delta_E= -0.899  |g|= 0.388  |ddm|= 9.36
HOMO:  -0.7929834249883884 LUMO:  -0.7432426407029944
Fermi energy:      -0.7680253406
[2.     2.     2.     2.     2.     2.     2.     1.9995 1.9865 0.014 ]
entropy correction =  -0.0008453412006610836
cycle= 4 E= -29.7462087681326  delta_E= -0.0493  |g|= 0.176  |ddm|= 2.88
HOMO:  -0.8021685420501798 LUMO:  -0.7637525987510259
Fermi energy:      -0.7828410053
[2.    2.    2.    2.    2.    2.    2.    1.998 1.959 0.043]
entropy correction =  -0.002117564992300861
cycle= 5 E= -29.7538535117942  delta_E= -0.00764  |g|= 0.107  |ddm|= 1.32
HOMO:  -0.8060038231631976 LUMO:  -0.7637602522147194
Fermi energy:      -0.7847130920
[2.     2.     2.     2.     2.     2.     2.     1.9981 1.9721 0.0298]
entropy correction =  -0.0015867677193259014
cycle= 6 E= -29.7584159534195  delta_E= -0.00456  |g|= 0.0166  |ddm|= 0.542
HOMO:  -0.8051652809135259 LUMO:  -0.7631657757779067
Fermi energy:      -0.7839823817
[2.     2.     2.     2.     2.     2.     2.     1.9979 1.9715 0.0306]
entropy correction =  -0.001623684592435344
cycle= 7 E= -29.7585107514263  delta_E= -9.48e-05  |g|= 0.00397  |ddm|= 0.0802
HOMO:  -0.8050620303455502 LUMO:  -0.762976091773736
Fermi energy:      -0.7838389226
[2.     2.     2.     2.     2.     2.     2.     1.9979 1.9717 0.0304]
entropy correction =  -0.0016113234105487447
cycle= 8 E= -29.7585150503872  delta_E= -4.3e-06  |g|= 0.00167  |ddm|= 0.0219
HOMO:  -0.8050633659632556 LUMO:  -0.7630148875511035
Fermi energy:      -0.7838561810
[2.     2.     2.     2.     2.     2.     2.     1.9979 1.9716 0.0305]
entropy correction =  -0.0016172794295215276
cycle= 9 E= -29.7585160813857  delta_E= -1.03e-06  |g|= 0.000287  |ddm|= 0.00734
HOMO:  -0.8050626824177716 LUMO:  -0.7630095782891887
Fermi energy:      -0.7838531445
[2.     2.     2.     2.     2.     2.     2.     1.9979 1.9716 0.0305]
entropy correction =  -0.0016166986985525808
cycle= 10 E= -29.7585161184492  delta_E= -3.71e-08  |g|= 0.000113  |ddm|= 0.00211
HOMO:  -0.8050710010220172 LUMO:  -0.7630194936276065
Fermi energy:      -0.7838619820
[2.     2.     2.     2.     2.     2.     2.     1.9979 1.9716 0.0305]
entropy correction =  -0.0016170163380276326
cycle= 11 E= -29.7585161239484  delta_E= -5.5e-09  |g|= 1.57e-05  |ddm|= 0.000556
HOMO:  -0.805069644236915 LUMO:  -0.7630189807396737
Fermi energy:      -0.7838610744
[2.     2.     2.     2.     2.     2.     2.     1.9979 1.9716 0.0305]
entropy correction =  -0.001617114311636501
cycle= 12 E= -29.758516124041  delta_E= -9.26e-11  |g|= 2.44e-06  |ddm|= 8.42e-05
HOMO:  -0.805069645629198 LUMO:  -0.7630191382471196
Fermi energy:      -0.7838611437
[2.     2.     2.     2.     2.     2.     2.     1.9979 1.9716 0.0305]
entropy correction =  -0.0016171385082029274
Extra cycle  E= -29.7585161240404  delta_E= 5.9e-13  |g|= 2.68e-06  |ddm|= 3.09e-05
entropy correction =  -0.0016171385082029274
rks_ao.ne_frozen =  0
Set gradient conv threshold to 3.16228e-05
Initial guess from hcore.
HOMO:  -2.7788686108318497 LUMO:  -2.72632678275824
Fermi energy:      -2.7526140445
[2.     2.     2.     2.     2.     2.     2.     2.     1.9896 0.0104]
tot grids = 190200
init E= -29.9923485086986
HOMO:  -0.4088306085150083 LUMO:  -0.3735251619983907
Fermi energy:      -0.3911778108
[2.     2.     2.     2.     2.     2.     2.     2.     1.9431 0.0569]
entropy correction =  -0.0025884456128912547
cycle= 1 E= -30.9819789176906  delta_E= -0.99  |g|= 1.14  |ddm|= 16.6
HOMO:  -0.5927610253486804 LUMO:  -0.5667702064479144
Fermi energy:      -0.5797659010
[2.     2.     2.     2.     2.     2.     2.     2.     1.8616 0.1384]
entropy correction =  -0.005033645702815829
cycle= 2 E= -30.4405455868846  delta_E= 0.541  |g|= 1.73  |ddm|= 12.2
HOMO:  -0.5521898092500435 LUMO:  -0.5247838367010408
Fermi energy:      -0.5384473982
[2.     2.     2.     2.     2.     2.     2.     1.9981 1.8797 0.1221]
entropy correction =  -0.004653756522958536
cycle= 3 E= -31.3633015060715  delta_E= -0.923  |g|= 0.384  |ddm|= 10.1
HOMO:  -0.5120118132996485 LUMO:  -0.5042620105917464
Fermi energy:      -0.5081457765
[2.     2.     2.     2.     2.     2.     2.     1.9994 1.3684 0.63
 0.0021]
entropy correction =  -0.012578551808781329
cycle= 4 E= -31.3751762973192  delta_E= -0.0119  |g|= 0.352  |ddm|= 5.46
HOMO:  -0.5183272195677981 LUMO:  -0.5030014596472943
Fermi energy:      -0.5106562027
[2.0000e+00 2.0000e+00 2.0000e+00 2.0000e+00 2.0000e+00 2.0000e+00
 2.0000e+00 1.9987e+00 1.6452e+00 3.5571e-01 3.9325e-04]
entropy correction =  -0.009430125727119834
cycle= 5 E= -31.4187048567045  delta_E= -0.0435  |g|= 0.0774  |ddm|= 4.12
HOMO:  -0.517207440822888 LUMO:  -0.5058944345191922
Fermi energy:      -0.5115461057
[2.0000e+00 2.0000e+00 2.0000e+00 2.0000e+00 2.0000e+00 2.0000e+00
 2.0000e+00 1.9987e+00 1.5125e+00 4.8820e-01 5.7022e-04]
entropy correction =  -0.01119113708317604
cycle= 6 E= -31.4206147474456  delta_E= -0.00191  |g|= 0.0251  |ddm|= 0.661
HOMO:  -0.5173809850654782 LUMO:  -0.5059095239023099
Fermi energy:      -0.5116391841
[2.0000e+00 2.0000e+00 2.0000e+00 2.0000e+00 2.0000e+00 2.0000e+00
 2.0000e+00 1.9986e+00 1.5184e+00 4.8247e-01 4.9223e-04]
entropy correction =  -0.011125219368745413
cycle= 7 E= -31.420741226065  delta_E= -0.000126  |g|= 0.0137  |ddm|= 0.221
HOMO:  -0.5174615174131885 LUMO:  -0.5054462001422618
Fermi energy:      -0.5114479938
[2.0000e+00 2.0000e+00 2.0000e+00 2.0000e+00 2.0000e+00 2.0000e+00
 2.0000e+00 1.9987e+00 1.5380e+00 4.6282e-01 5.1540e-04]
entropy correction =  -0.010894697114229066
cycle= 8 E= -31.4208286080742  delta_E= -8.74e-05  |g|= 0.00269  |ddm|= 0.144
HOMO:  -0.5173952606043019 LUMO:  -0.505592234192509
Fermi energy:      -0.5114880873
[2.0000e+00 2.0000e+00 2.0000e+00 2.0000e+00 2.0000e+00 2.0000e+00
 2.0000e+00 1.9987e+00 1.5304e+00 4.7040e-01 5.1611e-04]
entropy correction =  -0.010984407055935378
cycle= 9 E= -31.4208316234285  delta_E= -3.02e-06  |g|= 0.00131  |ddm|= 0.0318
HOMO:  -0.5174489231463496 LUMO:  -0.5056036865943738
Fermi energy:      -0.5115205220
[2.0000e+00 2.0000e+00 2.0000e+00 2.0000e+00 2.0000e+00 2.0000e+00
 2.0000e+00 1.9987e+00 1.5319e+00 4.6889e-01 5.1585e-04]
entropy correction =  -0.010967042973483483
cycle= 10 E= -31.4208324073299  delta_E= -7.84e-07  |g|= 0.000208  |ddm|= 0.0146
HOMO:  -0.5174484026136319 LUMO:  -0.5056028617348661
Fermi energy:      -0.5115198604
[2.0000e+00 2.0000e+00 2.0000e+00 2.0000e+00 2.0000e+00 2.0000e+00
 2.0000e+00 1.9987e+00 1.5319e+00 4.6888e-01 5.1565e-04]
entropy correction =  -0.01096683910788155
cycle= 11 E= -31.4208324254669  delta_E= -1.81e-08  |g|= 7.22e-05  |ddm|= 0.00196
HOMO:  -0.5174435093427078 LUMO:  -0.5056001323776245
Fermi energy:      -0.5115160496
[2.0000e+00 2.0000e+00 2.0000e+00 2.0000e+00 2.0000e+00 2.0000e+00
 2.0000e+00 1.9987e+00 1.5319e+00 4.6896e-01 5.1573e-04]
entropy correction =  -0.01096776562484068
cycle= 12 E= -31.4208324276573  delta_E= -2.19e-09  |g|= 1.02e-05  |ddm|= 0.000605
HOMO:  -0.5174440901019833 LUMO:  -0.505600859801478
Fermi energy:      -0.5115167034
[2.0000e+00 2.0000e+00 2.0000e+00 2.0000e+00 2.0000e+00 2.0000e+00
 2.0000e+00 1.9987e+00 1.5319e+00 4.6897e-01 5.1573e-04]
entropy correction =  -0.010967829425796476
cycle= 13 E= -31.4208324276966  delta_E= -3.93e-11  |g|= 2e-06  |ddm|= 9.24e-05
HOMO:  -0.5174442750108249 LUMO:  -0.5056007715491185
Fermi energy:      -0.5115167512
[2.0000e+00 2.0000e+00 2.0000e+00 2.0000e+00 2.0000e+00 2.0000e+00
 2.0000e+00 1.9987e+00 1.5319e+00 4.6896e-01 5.1572e-04]
entropy correction =  -0.010967715327879768
Extra cycle  E= -31.4208324276904  delta_E= 6.19e-12  |g|= 4.23e-06  |ddm|= 5.16e-05
 Adding contributions from fluctuation of occupation numbers.
 Adding contributions from fluctuation of occupation numbers.
entropy correction =  -0.010967715327879768
2-norm (grad),       max(grad):
181.94721999425607 ,  38.05402487203695
time of hessian construction : 15.510  (cpu),  0.389  (wall) 
time of hessian construction : 14.190  (cpu),  0.356  (wall) 
f =  16552.395431819106
|umat| =  2.7388565061057393
rks_ao.ne_frozen =  0
Set gradient conv threshold to 3.16228e-05
Initial guess from hcore.
HOMO:  -3.5059246765774312 LUMO:  -3.311640528025111
Fermi energy:      -3.4070343742
[2. 2. 2. 2. 2. 2. 2. 2. 2.]
tot grids = 190200
init E= -10.1113803257095
HOMO:  -0.06752509319289647 LUMO:  -0.06720841937906072
Fermi energy:      -0.0716460995
[2.     2.     2.     2.     2.     2.     1.9948 1.9461 0.6097 0.5832
 0.4416 0.4246]
entropy correction =  -0.02405465839043419
cycle= 1 E= -10.1854760993555  delta_E= -0.0741  |g|= 2.77  |ddm|= 7.89
HOMO:  -0.7811373972859444 LUMO:  -0.6509888108768673
Fermi energy:      -0.7147305895
[2. 2. 2. 2. 2. 2. 2. 2. 2.]
entropy correction =  -9.601093496320982e-07
cycle= 2 E= -11.519687878005  delta_E= -1.33  |g|= 2.04  |ddm|=  6.5
HOMO:  -0.45114940557997324 LUMO:  -0.41821112123756105
Fermi energy:      -0.4353277218
[2.0000e+00 2.0000e+00 2.0000e+00 2.0000e+00 1.9997e+00 1.9971e+00
 1.9970e+00 1.9201e+00 1.9189e+00 6.3149e-02 6.2120e-02 2.4452e-02
 1.6746e-02 6.6396e-04]
entropy correction =  -0.007569976157232454
cycle= 3 E= -13.2276423250835  delta_E= -1.71  |g|= 0.55  |ddm|= 3.82
HOMO:  -0.36568673369326227 LUMO:  -0.36506840075195174
Fermi energy:      -0.3679340980
[2.0000e+00 1.9991e+00 1.9965e+00 1.9958e+00 1.9763e+00 1.9757e+00
 1.8907e+00 1.2625e+00 7.7897e-01 7.2103e-01 6.1129e-01 5.6192e-01
 2.2987e-01 1.9402e-04]
entropy correction =  -0.03921101990136383
cycle= 4 E= -13.3663054999676  delta_E= -0.139  |g|= 0.193  |ddm|= 1.67
HOMO:  -0.3689400884063187 LUMO:  -0.3627061261384333
Fermi energy:      -0.3676801927
[2.0000e+00 1.9999e+00 1.9990e+00 1.9987e+00 1.9847e+00 1.9788e+00
 1.9511e+00 1.4482e+00 1.1253e+00 5.3992e-01 4.6935e-01 4.3466e-01
 7.0272e-02 1.6084e-04]
entropy correction =  -0.033080328933587866
cycle= 5 E= -12.9959196815961  delta_E= 0.37  |g|= 0.759  |ddm|=  1.4
HOMO:  -0.3732175200999531 LUMO:  -0.3686552702168669
Fermi energy:      -0.3715979271
[2.0000e+00 1.9999e+00 1.9975e+00 1.9957e+00 1.9724e+00 1.9677e+00
 1.9607e+00 1.1812e+00 1.1606e+00 7.1394e-01 4.9406e-01 4.7231e-01
 8.3960e-02 2.0318e-04]
entropy correction =  -0.03567446838924295
cycle= 6 E= -13.3828339434674  delta_E= -0.387  |g|= 0.138  |ddm|= 1.06
HOMO:  -0.37157582717482507 LUMO:  -0.3703509824627468
Fermi energy:      -0.3709021596
[2.0000e+00 1.9995e+00 1.9966e+00 1.9897e+00 1.9755e+00 1.9493e+00
 1.9282e+00 1.2177e+00 1.0673e+00 9.4494e-01 5.5110e-01 3.1290e-01
 6.6974e-02 2.2313e-04]
entropy correction =  -0.03607822567510432
cycle= 7 E= -13.3715896342394  delta_E= 0.0112  |g|= 0.158  |ddm|= 0.56
HOMO:  -0.3700943131451324 LUMO:  -0.3672584096968881
Fermi energy:      -0.3694702575
[2.0000e+00 1.9993e+00 1.9934e+00 1.9917e+00 1.9606e+00 1.9546e+00
 1.9390e+00 1.1605e+00 1.0623e+00 7.8235e-01 5.4264e-01 5.3367e-01
 7.9655e-02 2.3743e-04]
entropy correction =  -0.03767713831264069
cycle= 8 E= -13.3910292659348  delta_E= -0.0194  |g|= 0.0941  |ddm|= 0.479
HOMO:  -0.3685024601419266 LUMO:  -0.36644740294450084
Fermi energy:      -0.3681611084
[2.0000e+00 1.9992e+00 1.9928e+00 1.9901e+00 1.9643e+00 1.9521e+00
 1.9394e+00 1.1137e+00 1.0341e+00 8.3029e-01 5.5723e-01 5.4416e-01
 8.2478e-02 2.3453e-04]
entropy correction =  -0.03805015175426906
cycle= 9 E= -13.3908064632061  delta_E= 0.000223  |g|= 0.0952  |ddm|= 0.267
HOMO:  -0.36423497850753944 LUMO:  -0.36384162356986405
Fermi energy:      -0.3649503135
[2.0000e+00 1.9991e+00 1.9901e+00 1.9864e+00 1.9633e+00 1.9623e+00
 1.9373e+00 1.0317e+00 9.2859e-01 8.8958e-01 6.3019e-01 5.9030e-01
 9.0833e-02 2.2614e-04]
entropy correction =  -0.03886149624096089
cycle= 10 E= -13.3964832093279  delta_E= -0.00568  |g|= 0.0353  |ddm|= 0.234
HOMO:  -0.3644503739902954 LUMO:  -0.3637239835516035
Fermi energy:      -0.3647383369
[2.0000e+00 1.9992e+00 1.9901e+00 1.9882e+00 1.9623e+00 1.9620e+00
 1.9398e+00 9.8096e-01 9.7121e-01 8.9891e-01 6.1019e-01 6.0272e-01
 9.4226e-02 2.2523e-04]
entropy correction =  -0.038856978580592186
cycle= 11 E= -13.3970554753654  delta_E= -0.000572  |g|= 0.0322  |ddm|= 0.123
HOMO:  -0.3646227273624502 LUMO:  -0.3637526564575975
Fermi energy:      -0.3648910551
[2.0000e+00 1.9992e+00 1.9905e+00 1.9885e+00 1.9624e+00 1.9613e+00
 1.9403e+00 1.0002e+00 9.7317e-01 8.8665e-01 6.0469e-01 5.9968e-01
 9.3167e-02 2.2745e-04]
entropy correction =  -0.03877763936412968
cycle= 12 E= -13.3973390110619  delta_E= -0.000284  |g|= 0.0247  |ddm|= 0.0919
HOMO:  -0.3657153574146733 LUMO:  -0.36436589279568543
Fermi energy:      -0.3656635492
[2.0000e+00 1.9992e+00 1.9912e+00 1.9893e+00 1.9612e+00 1.9602e+00
 1.9393e+00 1.0099e+00 1.0052e+00 8.7096e-01 5.9454e-01 5.8694e-01
 9.1824e-02 2.3110e-04]
entropy correction =  -0.038665200966669595
cycle= 13 E= -13.3977921545882  delta_E= -0.000453  |g|= 0.00227  |ddm|= 0.0539
HOMO:  -0.3657623316732863 LUMO:  -0.36439519275514165
Fermi energy:      -0.3657074161
[2.0000e+00 1.9992e+00 1.9911e+00 1.9894e+00 1.9612e+00 1.9605e+00
 1.9399e+00 1.0085e+00 1.0055e+00 8.6953e-01 5.9624e-01 5.8729e-01
 9.1510e-02 2.3026e-04]
entropy correction =  -0.038654519022706064
cycle= 14 E= -13.3977863785086  delta_E= 5.78e-06  |g|= 0.00321  |ddm|= 0.0134
HOMO:  -0.3657763521048742 LUMO:  -0.3644055286092991
Fermi energy:      -0.3657264788
[2.0000e+00 1.9992e+00 1.9911e+00 1.9892e+00 1.9615e+00 1.9604e+00
 1.9402e+00 1.0087e+00 1.0050e+00 8.6867e-01 5.9580e-01 5.8856e-01
 9.1394e-02 2.2980e-04]
entropy correction =  -0.03864810476941664
cycle= 15 E= -13.3977950493311  delta_E= -8.67e-06  |g|= 0.00136  |ddm|= 0.0114
HOMO:  -0.36580671994288855 LUMO:  -0.36442988635932033
Fermi energy:      -0.3657438008
[2.0000e+00 1.9992e+00 1.9911e+00 1.9892e+00 1.9613e+00 1.9604e+00
 1.9397e+00 1.0078e+00 1.0063e+00 8.6936e-01 5.9581e-01 5.8810e-01
 9.1467e-02 2.3044e-04]
entropy correction =  -0.03866041192591535
cycle= 16 E= -13.397797109448  delta_E= -2.06e-06  |g|= 0.000342  |ddm|= 0.00425
HOMO:  -0.36578965786604806 LUMO:  -0.364425190359391
Fermi energy:      -0.3657347371
[2.0000e+00 1.9992e+00 1.9911e+00 1.9892e+00 1.9614e+00 1.9603e+00
 1.9396e+00 1.0079e+00 1.0055e+00 8.6979e-01 5.9542e-01 5.8879e-01
 9.1509e-02 2.3054e-04]
entropy correction =  -0.03866558355664489
cycle= 17 E= -13.3977953101898  delta_E= 1.8e-06  |g|= 0.00142  |ddm|= 0.00399
HOMO:  -0.36578938762811963 LUMO:  -0.36442157673410513
Fermi energy:      -0.3657319644
[2.0000e+00 1.9992e+00 1.9911e+00 1.9892e+00 1.9613e+00 1.9604e+00
 1.9397e+00 1.0076e+00 1.0057e+00 8.6971e-01 5.9590e-01 5.8834e-01
 9.1510e-02 2.3042e-04]
entropy correction =  -0.03866332761685495
cycle= 18 E= -13.397797165902  delta_E= -1.86e-06  |g|= 0.000229  |ddm|= 0.0036
HOMO:  -0.36577467324419355 LUMO:  -0.36441347293209647
Fermi energy:      -0.3657212224
[2.0000e+00 1.9992e+00 1.9911e+00 1.9892e+00 1.9613e+00 1.9604e+00
 1.9397e+00 1.0074e+00 1.0053e+00 8.6997e-01 5.9612e-01 5.8851e-01
 9.1534e-02 2.3043e-04]
entropy correction =  -0.038666543298506405
cycle= 19 E= -13.3977971499091  delta_E= 1.6e-08  |g|= 0.000243  |ddm|= 0.00103
HOMO:  -0.36577850648961213 LUMO:  -0.36441409335412767
Fermi energy:      -0.3657219733
[2.0000e+00 1.9992e+00 1.9911e+00 1.9892e+00 1.9613e+00 1.9604e+00
 1.9397e+00 1.0071e+00 1.0057e+00 8.6995e-01 5.9598e-01 5.8855e-01
 9.1539e-02 2.3041e-04]
entropy correction =  -0.03866573587443528
cycle= 20 E= -13.3977971133368  delta_E= 3.66e-08  |g|= 0.000368  |ddm|= 0.000967
HOMO:  -0.3657795031213898 LUMO:  -0.36441521339317023
Fermi energy:      -0.3657232868
[2.0000e+00 1.9992e+00 1.9911e+00 1.9892e+00 1.9613e+00 1.9604e+00
 1.9397e+00 1.0072e+00 1.0056e+00 8.6993e-01 5.9599e-01 5.8850e-01
 9.1538e-02 2.3041e-04]
entropy correction =  -0.03866548701574087
cycle= 21 E= -13.3977972081072  delta_E= -9.48e-08  |g|= 8.24e-05  |ddm|= 0.000617
HOMO:  -0.36577967401753214 LUMO:  -0.3644155105288963
Fermi energy:      -0.3657237464
[2.0000e+00 1.9992e+00 1.9911e+00 1.9892e+00 1.9613e+00 1.9604e+00
 1.9397e+00 1.0073e+00 1.0056e+00 8.6992e-01 5.9600e-01 5.8849e-01
 9.1534e-02 2.3042e-04]
entropy correction =  -0.03866552878278109
cycle= 22 E= -13.3977971966599  delta_E= 1.14e-08  |g|= 0.000157  |ddm|= 0.000372
HOMO:  -0.365783109953756 LUMO:  -0.36441761845365267
Fermi energy:      -0.3657264239
[2.0000e+00 1.9992e+00 1.9911e+00 1.9892e+00 1.9613e+00 1.9604e+00
 1.9397e+00 1.0074e+00 1.0057e+00 8.6986e-01 5.9595e-01 5.8844e-01
 9.1529e-02 2.3042e-04]
entropy correction =  -0.03866486963689739
cycle= 23 E= -13.3977972131482  delta_E= -1.65e-08  |g|= 1.34e-05  |ddm|= 0.000281
HOMO:  -0.36578337264146477 LUMO:  -0.36441760772541215
Fermi energy:      -0.3657265113
[2.0000e+00 1.9992e+00 1.9911e+00 1.9892e+00 1.9613e+00 1.9604e+00
 1.9397e+00 1.0074e+00 1.0057e+00 8.6985e-01 5.9595e-01 5.8844e-01
 9.1528e-02 2.3042e-04]
entropy correction =  -0.03866476896731602
cycle= 24 E= -13.3977972132754  delta_E= -1.27e-10  |g|= 7.51e-06  |ddm|= 4.57e-05
HOMO:  -0.36578500538687453 LUMO:  -0.364418681782557
Fermi energy:      -0.3657279562
[2.0000e+00 1.9992e+00 1.9911e+00 1.9892e+00 1.9613e+00 1.9604e+00
 1.9397e+00 1.0074e+00 1.0057e+00 8.6982e-01 5.9593e-01 5.8841e-01
 9.1524e-02 2.3042e-04]
entropy correction =  -0.03866440743092363
Extra cycle  E= -13.3977972117187  delta_E= 1.56e-09  |g|= 4.08e-05  |ddm|= 0.000128
entropy correction =  -0.03866440743092363
rks_ao.ne_frozen =  0
Set gradient conv threshold to 3.16228e-05
Initial guess from hcore.
HOMO:  -2.5697743025527555 LUMO:  -2.569382722062277
Fermi energy:      -2.5702533646
[2.0000e+00 2.0000e+00 2.0000e+00 2.0000e+00 2.0000e+00 2.0000e+00
 2.0000e+00 1.9973e+00 9.5213e-01 9.1316e-01 6.4828e-02 6.2218e-02
 5.0577e-03 4.5522e-03 7.7044e-04]
tot grids = 190200
init E= -9.69948947746163
HOMO:  0.020186744323900288 LUMO:  0.022956480560603457
Fermi energy:       0.0201249620
[2.     2.     2.     2.     2.     2.     1.9952 1.3489 0.9938 0.7242
 0.4086 0.2283 0.1136 0.089  0.0467 0.0381 0.0078 0.003  0.0027]
entropy correction =  -0.03509306549521695
cycle= 1 E= -10.9796317178464  delta_E= -1.28  |g|= 2.09  |ddm|= 9.47
HOMO:  -0.4498544138277908 LUMO:  -0.44133736612831714
Fermi energy:      -0.4450203310
[2.0000e+00 2.0000e+00 2.0000e+00 2.0000e+00 2.0000e+00 2.0000e+00
 1.9992e+00 1.5275e+00 1.4490e+00 6.4750e-01 1.8221e-01 1.6190e-01
 3.0510e-02 1.9863e-03]
entropy correction =  -0.024422162680886005
cycle= 2 E= -11.0533458441954  delta_E= -0.0737  |g|= 2.12  |ddm|= 9.27
HOMO:  -0.2951085877103162 LUMO:  -0.2816260823570744
Fermi energy:      -0.2871259793
[2.     2.     2.     2.     1.9962 1.9823 1.9733 1.6885 1.6631 0.4995
 0.0703 0.0682 0.0509 0.0039 0.0037]
entropy correction =  -0.020305231780750343
cycle= 3 E= -12.304599407128  delta_E= -1.25  |g|= 0.869  |ddm|= 1.84
HOMO:  -0.25744485415875296 LUMO:  -0.2546174151439567
Fermi energy:      -0.2559776257
[2.0000e+00 2.0000e+00 2.0000e+00 2.0000e+00 1.9991e+00 1.9536e+00
 1.9033e+00 1.7184e+00 1.1457e+00 8.6481e-01 1.6691e-01 1.6620e-01
 7.9315e-02 1.7665e-03 7.2429e-04 1.1689e-04]
entropy correction =  -0.028318241281868006
cycle= 4 E= -11.4948330906038  delta_E= 0.81  |g|= 1.31  |ddm|= 2.16
HOMO:  -0.2369503864540045 LUMO:  -0.23076072665807337
Fermi energy:      -0.2343807055
[2.0000e+00 2.0000e+00 2.0000e+00 2.0000e+00 1.9700e+00 1.9351e+00
 1.8523e+00 1.2986e+00 1.2515e+00 6.5303e-01 6.3763e-01 2.9307e-01
 7.1240e-02 2.3293e-02 1.4035e-02 2.6758e-04]
entropy correction =  -0.037282717712839225
cycle= 5 E= -12.759570598354  delta_E= -1.26  |g|= 0.123  |ddm|= 2.08
HOMO:  -0.21586358682069498 LUMO:  -0.2143449629374861
Fermi energy:      -0.2149518234
[2.0000e+00 2.0000e+00 2.0000e+00 2.0000e+00 1.9568e+00 1.9401e+00
 1.7577e+00 1.5255e+00 1.0909e+00 9.3939e-01 4.1246e-01 2.4404e-01
 1.0283e-01 1.7684e-02 1.2258e-02 3.0229e-04]
entropy correction =  -0.03708118805852362
cycle= 6 E= -12.5658369635058  delta_E= 0.194  |g|= 0.515  |ddm|= 1.33
HOMO:  -0.2167243342374307 LUMO:  -0.21228335309118815
Fermi energy:      -0.2142096344
[2.0000e+00 2.0000e+00 2.0000e+00 2.0000e+00 1.9301e+00 1.7687e+00
 1.7622e+00 1.2741e+00 1.2463e+00 8.0972e-01 7.3602e-01 3.5029e-01
 8.5942e-02 2.0774e-02 1.5381e-02 3.9264e-04]
entropy correction =  -0.04270777390385236
cycle= 7 E= -12.7664698725694  delta_E= -0.201  |g|= 0.081  |ddm|= 1.01
HOMO:  -0.21722758593643762 LUMO:  -0.2130419997040752
Fermi energy:      -0.2148593448
[2.0000e+00 2.0000e+00 2.0000e+00 2.0000e+00 1.9355e+00 1.8486e+00
 1.7229e+00 1.2388e+00 1.2325e+00 8.2024e-01 7.1089e-01 3.7529e-01
 8.1051e-02 1.7521e-02 1.6358e-02 3.5885e-04]
entropy correction =  -0.04222609592903518
cycle= 8 E= -12.76550842749  delta_E= 0.000961  |g|= 0.0937  |ddm|= 0.278
HOMO:  -0.21725098952699531 LUMO:  -0.2123812373105929
Fermi energy:      -0.2148910139
[2.0000e+00 2.0000e+00 2.0000e+00 2.0000e+00 1.9339e+00 1.8031e+00
 1.7946e+00 1.2404e+00 1.2317e+00 7.5416e-01 7.4957e-01 3.7948e-01
 7.9205e-02 1.6820e-02 1.6594e-02 3.5665e-04]
entropy correction =  -0.042026640577673205
cycle= 9 E= -12.7688702644019  delta_E= -0.00336  |g|= 0.0683  |ddm|= 0.214
HOMO:  -0.2163723223677051 LUMO:  -0.21153026365043073
Fermi energy:      -0.2140384443
[2.0000e+00 2.0000e+00 2.0000e+00 2.0000e+00 1.9316e+00 1.8205e+00
 1.8021e+00 1.2310e+00 1.2292e+00 7.5431e-01 7.3765e-01 3.8010e-01
 7.9320e-02 1.7079e-02 1.6674e-02 3.6658e-04]
entropy correction =  -0.04179898931485521
cycle= 10 E= -12.7719399399099  delta_E= -0.00307  |g|= 0.0243  |ddm|= 0.122
HOMO:  -0.2171473042778101 LUMO:  -0.21227134732485006
Fermi energy:      -0.2147847764
[2.0000e+00 2.0000e+00 2.0000e+00 2.0000e+00 1.9318e+00 1.8098e+00
 1.8000e+00 1.2352e+00 1.2320e+00 7.5382e-01 7.4836e-01 3.7598e-01
 7.8858e-02 1.7536e-02 1.6385e-02 3.5734e-04]
entropy correction =  -0.0419186910839094
cycle= 11 E= -12.7720926251097  delta_E= -0.000153  |g|= 0.0209  |ddm|= 0.0744
HOMO:  -0.21734393674963298 LUMO:  -0.21255550868644724
Fermi energy:      -0.2149971833
[2.0000e+00 2.0000e+00 2.0000e+00 2.0000e+00 1.9319e+00 1.8087e+00
 1.7963e+00 1.2331e+00 1.2305e+00 7.6057e-01 7.5068e-01 3.7526e-01
 7.8823e-02 1.7176e-02 1.6719e-02 3.5409e-04]
entropy correction =  -0.04199396261341344
cycle= 12 E= -12.7723731790681  delta_E= -0.000281  |g|= 0.0073  |ddm|= 0.0461
HOMO:  -0.2173706482246541 LUMO:  -0.21253561876140378
Fermi energy:      -0.2150281881
[2.0000e+00 2.0000e+00 2.0000e+00 2.0000e+00 1.9321e+00 1.8068e+00
 1.8024e+00 1.2322e+00 1.2301e+00 7.5578e-01 7.5214e-01 3.7565e-01
 7.8669e-02 1.7200e-02 1.6640e-02 3.5388e-04]
entropy correction =  -0.04193905425485233
cycle= 13 E= -12.7724041707586  delta_E= -3.1e-05  |g|= 0.00355  |ddm|= 0.0215
HOMO:  -0.21739824073320876 LUMO:  -0.21254874272261537
Fermi energy:      -0.2150509540
[2.0000e+00 2.0000e+00 2.0000e+00 2.0000e+00 1.9321e+00 1.8064e+00
 1.8045e+00 1.2316e+00 1.2305e+00 7.5487e-01 7.5135e-01 3.7594e-01
 7.8537e-02 1.7252e-02 1.6567e-02 3.5390e-04]
entropy correction =  -0.04191560697803056
cycle= 14 E= -12.7724129692474  delta_E= -8.8e-06  |g|= 0.0013  |ddm|= 0.00882
HOMO:  -0.2173801271068836 LUMO:  -0.21252081713549967
Fermi energy:      -0.2150307940
[2.0000e+00 2.0000e+00 2.0000e+00 2.0000e+00 1.9320e+00 1.8061e+00
 1.8042e+00 1.2319e+00 1.2307e+00 7.5414e-01 7.5230e-01 3.7590e-01
 7.8561e-02 1.7235e-02 1.6608e-02 3.5435e-04]
entropy correction =  -0.041924441543578904
cycle= 15 E= -12.7724135951309  delta_E= -6.26e-07  |g|= 0.00102  |ddm|= 0.00451
HOMO:  -0.2173812480786888 LUMO:  -0.2125196121512893
Fermi energy:      -0.2150299665
[2.0000e+00 2.0000e+00 2.0000e+00 2.0000e+00 1.9320e+00 1.8058e+00
 1.8042e+00 1.2318e+00 1.2309e+00 7.5411e-01 7.5251e-01 3.7590e-01
 7.8563e-02 1.7225e-02 1.6621e-02 3.5436e-04]
entropy correction =  -0.04192761825902371
cycle= 16 E= -12.7724144150792  delta_E= -8.2e-07  |g|= 0.000204  |ddm|= 0.00253
HOMO:  -0.21738533873150448 LUMO:  -0.21252624349802837
Fermi energy:      -0.2150344114
[2.0000e+00 2.0000e+00 2.0000e+00 2.0000e+00 1.9320e+00 1.8056e+00
 1.8041e+00 1.2318e+00 1.2309e+00 7.5431e-01 7.5258e-01 3.7592e-01
 7.8554e-02 1.7226e-02 1.6618e-02 3.5422e-04]
entropy correction =  -0.041931197217076964
cycle= 17 E= -12.7724144482677  delta_E= -3.32e-08  |g|= 3.93e-05  |ddm|= 0.000518
HOMO:  -0.21738530881767412 LUMO:  -0.21252648231715138
Fermi energy:      -0.2150343578
[2.0000e+00 2.0000e+00 2.0000e+00 2.0000e+00 1.9320e+00 1.8057e+00
 1.8041e+00 1.2318e+00 1.2309e+00 7.5434e-01 7.5257e-01 3.7590e-01
 7.8555e-02 1.7228e-02 1.6617e-02 3.5423e-04]
entropy correction =  -0.04193124179484179
cycle= 18 E= -12.7724144493892  delta_E= -1.12e-09  |g|= 1.54e-05  |ddm|= 0.000152
HOMO:  -0.21738541970906736 LUMO:  -0.21252642082420148
Fermi energy:      -0.2150345293
[2.0000e+00 2.0000e+00 2.0000e+00 2.0000e+00 1.9320e+00 1.8057e+00
 1.8041e+00 1.2318e+00 1.2309e+00 7.5432e-01 7.5260e-01 3.7590e-01
 7.8553e-02 1.7227e-02 1.6617e-02 3.5423e-04]
entropy correction =  -0.04193104047945294
cycle= 19 E= -12.7724144495707  delta_E= -1.81e-10  |g|= 1.17e-05  |ddm|= 6.28e-05
HOMO:  -0.21738545756064312 LUMO:  -0.21252657331197994
Fermi energy:      -0.2150345444
[2.0000e+00 2.0000e+00 2.0000e+00 2.0000e+00 1.9320e+00 1.8057e+00
 1.8041e+00 1.2318e+00 1.2309e+00 7.5433e-01 7.5258e-01 3.7590e-01
 7.8553e-02 1.7227e-02 1.6617e-02 3.5422e-04]
entropy correction =  -0.04193107610277455
Extra cycle  E= -12.7724144409451  delta_E= 8.63e-09  |g|= 0.000107  |ddm|= 0.000178
degenerate subspace detected:
nsub = 2
subspace 1:
8, 9, 
subspace 2:
11, 12, 

 Adding contributions from fluctuation of occupation numbers.
degenerate subspace detected:
nsub = 4
subspace 1:
1, 2, 
subspace 2:
6, 7, 
subspace 3:
8, 9, 
subspace 4:
10, 11, 

 Adding contributions from fluctuation of occupation numbers.
entropy correction =  -0.04193107610277455
2-norm (grad),       max(grad):
0.0510244892015029 ,  0.004278666445453418
[...]
 1.9405e+00 1.0503e+00 1.0451e+00 8.3250e-01 5.7093e-01 5.6582e-01
 9.1506e-02 2.4374e-04]
entropy correction =  -0.03831479590506116
cycle= 9 E= -13.3970396085987  delta_E= -0.0016  |g|= 0.019  |ddm|= 0.0855
HOMO:  -0.36661285133424526 LUMO:  -0.36490240257379997
Fermi energy:      -0.3663714790
[2.0000e+00 1.9991e+00 1.9909e+00 1.9887e+00 1.9616e+00 1.9611e+00
 1.9380e+00 1.0285e+00 1.0241e+00 8.5414e-01 5.8301e-01 5.7763e-01
 9.2824e-02 2.4420e-04]
entropy correction =  -0.0385834438536268
cycle= 10 E= -13.3968342078176  delta_E= 0.000205  |g|= 0.0273  |ddm|= 0.0644
HOMO:  -0.3657022199407092 LUMO:  -0.3645340771731085
Fermi energy:      -0.3657504511
[2.0000e+00 1.9991e+00 1.9901e+00 1.9879e+00 1.9631e+00 1.9617e+00
 1.9368e+00 1.0007e+00 9.9518e-01 8.7896e-01 5.9959e-01 5.9054e-01
 9.6176e-02 2.4225e-04]
entropy correction =  -0.038829997960868376
cycle= 11 E= -13.3973431705927  delta_E= -0.000509  |g|= 0.00333  |ddm|= 0.0567
HOMO:  -0.3657338248971691 LUMO:  -0.36449513930119976
Fermi energy:      -0.3657769642
[2.0000e+00 1.9991e+00 1.9899e+00 1.9884e+00 1.9635e+00 1.9613e+00
 1.9375e+00 1.0100e+00 9.9569e-01 8.7251e-01 5.9503e-01 5.9127e-01
 9.5641e-02 2.4342e-04]
entropy correction =  -0.038775616684044015
cycle= 12 E= -13.3973203651056  delta_E= 2.28e-05  |g|= 0.00526  |ddm|= 0.0231
HOMO:  -0.3658625079114274 LUMO:  -0.3645310520754625
Fermi energy:      -0.3658340991
[2.0000e+00 1.9991e+00 1.9902e+00 1.9883e+00 1.9630e+00 1.9616e+00
 1.9378e+00 1.0068e+00 1.0028e+00 8.7043e-01 5.9626e-01 5.8806e-01
 9.5466e-02 2.4335e-04]
entropy correction =  -0.03875593239559976
cycle= 13 E= -13.3973517224743  delta_E= -3.14e-05  |g|= 0.00168  |ddm|= 0.0183
HOMO:  -0.3658500365650668 LUMO:  -0.364515556022851
Fermi energy:      -0.3658129965
[2.0000e+00 1.9991e+00 1.9902e+00 1.9882e+00 1.9630e+00 1.9617e+00
 1.9379e+00 1.0042e+00 1.0037e+00 8.7098e-01 5.9621e-01 5.8911e-01
 9.5532e-02 2.4314e-04]
entropy correction =  -0.038760321852362924
cycle= 14 E= -13.3973505738849  delta_E= 1.15e-06  |g|= 0.00236  |ddm|= 0.00743
HOMO:  -0.36585069483025906 LUMO:  -0.3645169861502622
Fermi energy:      -0.3658131249
[2.0000e+00 1.9991e+00 1.9902e+00 1.9882e+00 1.9631e+00 1.9616e+00
 1.9378e+00 1.0041e+00 1.0038e+00 8.7111e-01 5.9646e-01 5.8888e-01
 9.5547e-02 2.4322e-04]
entropy correction =  -0.03876234196761135
cycle= 15 E= -13.3973542907743  delta_E= -3.72e-06  |g|= 0.000865  |ddm|= 0.00456
HOMO:  -0.36586070394101117 LUMO:  -0.3645372931370571
Fermi energy:      -0.3658324672
[2.0000e+00 1.9991e+00 1.9902e+00 1.9883e+00 1.9632e+00 1.9613e+00
 1.9376e+00 1.0058e+00 1.0028e+00 8.7120e-01 5.9675e-01 5.8789e-01
 9.5568e-02 2.4346e-04]
entropy correction =  -0.038763274965844835
cycle= 16 E= -13.3973521419774  delta_E= 2.15e-06  |g|= 0.00169  |ddm|= 0.00514
HOMO:  -0.36587686319847396 LUMO:  -0.3645392993819362
Fermi energy:      -0.3658351626
[2.0000e+00 1.9991e+00 1.9902e+00 1.9882e+00 1.9631e+00 1.9615e+00
 1.9376e+00 1.0046e+00 1.0042e+00 8.7113e-01 5.9619e-01 5.8839e-01
 9.5566e-02 2.4347e-04]
entropy correction =  -0.03876292128079291
cycle= 17 E= -13.3973545813751  delta_E= -2.44e-06  |g|= 0.000672  |ddm|= 0.00429
HOMO:  -0.3659022651789283 LUMO:  -0.3645586137780912
Fermi energy:      -0.3658555303
[2.0000e+00 1.9991e+00 1.9902e+00 1.9883e+00 1.9630e+00 1.9615e+00
 1.9375e+00 1.0051e+00 1.0047e+00 8.7103e-01 5.9565e-01 5.8818e-01
 9.5568e-02 2.4367e-04]
entropy correction =  -0.03876216478589855
cycle= 18 E= -13.3973544311541  delta_E= 1.5e-07  |g|= 0.00076  |ddm|= 0.00237
HOMO:  -0.36587666606037134 LUMO:  -0.3645400404598246
Fermi energy:      -0.3658353026
[2.0000e+00 1.9991e+00 1.9902e+00 1.9882e+00 1.9630e+00 1.9616e+00
 1.9376e+00 1.0045e+00 1.0041e+00 8.7119e-01 5.9615e-01 5.8849e-01
 9.5570e-02 2.4352e-04]
entropy correction =  -0.03876403662407074
cycle= 19 E= -13.3973547500528  delta_E= -3.19e-07  |g|= 0.000466  |ddm|= 0.00174
HOMO:  -0.365866115135177 LUMO:  -0.36453347791628615
Fermi energy:      -0.3658273190
[2.0000e+00 1.9991e+00 1.9902e+00 1.9882e+00 1.9630e+00 1.9616e+00
 1.9376e+00 1.0043e+00 1.0039e+00 8.7133e-01 5.9634e-01 5.8862e-01
 9.5579e-02 2.4351e-04]
entropy correction =  -0.038765902316720474
cycle= 20 E= -13.3973548810376  delta_E= -1.31e-07  |g|= 0.000146  |ddm|= 0.00096
HOMO:  -0.36587489233545173 LUMO:  -0.3645380747793984
Fermi energy:      -0.3658336385
[2.0000e+00 1.9991e+00 1.9902e+00 1.9882e+00 1.9630e+00 1.9615e+00
 1.9376e+00 1.0045e+00 1.0041e+00 8.7116e-01 5.9616e-01 5.8854e-01
 9.5566e-02 2.4348e-04]
entropy correction =  -0.03876343348162678
cycle= 21 E= -13.3973548866029  delta_E= -5.57e-09  |g|= 9.62e-05  |ddm|= 0.00053
HOMO:  -0.36587646487151043 LUMO:  -0.36453949145780956
Fermi energy:      -0.3658358729
[2.0000e+00 1.9991e+00 1.9902e+00 1.9882e+00 1.9630e+00 1.9616e+00
 1.9377e+00 1.0047e+00 1.0041e+00 8.7108e-01 5.9620e-01 5.8842e-01
 9.5559e-02 2.4346e-04]
entropy correction =  -0.038762274913818666
cycle= 22 E= -13.3973548681458  delta_E= 1.85e-08  |g|= 0.00017  |ddm|= 0.000683
HOMO:  -0.3658750087783911 LUMO:  -0.36453773449278914
Fermi energy:      -0.3658335104
[2.0000e+00 1.9991e+00 1.9902e+00 1.9882e+00 1.9630e+00 1.9616e+00
 1.9376e+00 1.0044e+00 1.0041e+00 8.7114e-01 5.9619e-01 5.8852e-01
 9.5564e-02 2.4347e-04]
entropy correction =  -0.03876322351980502
cycle= 23 E= -13.3973548841505  delta_E= -1.6e-08  |g|= 0.000128  |ddm|= 0.000618
HOMO:  -0.3658742356820409 LUMO:  -0.36453748710138834
Fermi energy:      -0.3658332421
[2.0000e+00 1.9991e+00 1.9902e+00 1.9882e+00 1.9630e+00 1.9615e+00
 1.9376e+00 1.0045e+00 1.0041e+00 8.7114e-01 5.9622e-01 5.8850e-01
 9.5564e-02 2.4347e-04]
entropy correction =  -0.038763263671728894
cycle= 24 E= -13.3973548631564  delta_E= 2.1e-08  |g|= 0.000215  |ddm|= 0.000463
HOMO:  -0.36587549715276374 LUMO:  -0.3645385510275014
Fermi energy:      -0.3658341839
[2.0000e+00 1.9991e+00 1.9902e+00 1.9882e+00 1.9630e+00 1.9615e+00
 1.9376e+00 1.0045e+00 1.0041e+00 8.7116e-01 5.9621e-01 5.8847e-01
 9.5566e-02 2.4349e-04]
entropy correction =  -0.03876348455755912
cycle= 25 E= -13.3973548960789  delta_E= -3.29e-08  |g|= 4.91e-05  |ddm|= 0.000382
HOMO:  -0.3658767247946559 LUMO:  -0.3645394210321975
Fermi energy:      -0.3658351040
[2.0000e+00 1.9991e+00 1.9902e+00 1.9882e+00 1.9630e+00 1.9615e+00
 1.9376e+00 1.0045e+00 1.0042e+00 8.7115e-01 5.9617e-01 5.8848e-01
 9.5566e-02 2.4350e-04]
entropy correction =  -0.0387634364705549
cycle= 26 E= -13.3973548934051  delta_E= 2.67e-09  |g|= 8.42e-05  |ddm|= 0.000228
HOMO:  -0.3658755427817167 LUMO:  -0.3645385312989026
Fermi energy:      -0.3658341637
[2.0000e+00 1.9991e+00 1.9902e+00 1.9882e+00 1.9630e+00 1.9615e+00
 1.9376e+00 1.0045e+00 1.0041e+00 8.7116e-01 5.9619e-01 5.8849e-01
 9.5566e-02 2.4349e-04]
entropy correction =  -0.03876347754741908
cycle= 27 E= -13.3973548982039  delta_E= -4.8e-09  |g|= 1.63e-05  |ddm|= 0.000152
HOMO:  -0.3658740054465488 LUMO:  -0.3645375360932629
Fermi energy:      -0.3658330271
[2.0000e+00 1.9991e+00 1.9902e+00 1.9882e+00 1.9630e+00 1.9615e+00
 1.9376e+00 1.0045e+00 1.0041e+00 8.7117e-01 5.9621e-01 5.8852e-01
 9.5567e-02 2.4348e-04]
entropy correction =  -0.03876365310701008
cycle= 28 E= -13.3973548953673  delta_E= 2.84e-09  |g|= 6.64e-05  |ddm|= 0.000124
HOMO:  -0.3658742248200675 LUMO:  -0.3645376673525201
Fermi energy:      -0.3658331731
[2.0000e+00 1.9991e+00 1.9902e+00 1.9882e+00 1.9630e+00 1.9615e+00
 1.9376e+00 1.0045e+00 1.0041e+00 8.7117e-01 5.9621e-01 5.8851e-01
 9.5567e-02 2.4348e-04]
entropy correction =  -0.03876363519181506
cycle= 29 E= -13.3973548982612  delta_E= -2.89e-09  |g|= 1.45e-05  |ddm|= 0.000121
HOMO:  -0.3658752479531668 LUMO:  -0.3645382415635666
Fermi energy:      -0.3658339001
[2.0000e+00 1.9991e+00 1.9902e+00 1.9882e+00 1.9630e+00 1.9615e+00
 1.9376e+00 1.0045e+00 1.0041e+00 8.7115e-01 5.9619e-01 5.8850e-01
 9.5566e-02 2.4348e-04]
entropy correction =  -0.038763413375787516
cycle= 30 E= -13.3973548983418  delta_E= -8.06e-11  |g|= 8.03e-06  |ddm|= 4.59e-05
HOMO:  -0.3658744369354994 LUMO:  -0.36453803413383956
Fermi energy:      -0.3658335264
[2.0000e+00 1.9991e+00 1.9902e+00 1.9882e+00 1.9630e+00 1.9615e+00
 1.9376e+00 1.0045e+00 1.0041e+00 8.7117e-01 5.9621e-01 5.8850e-01
 9.5567e-02 2.4349e-04]
entropy correction =  -0.03876367502129407
Extra cycle  E= -13.3973548964502  delta_E= 1.89e-09  |g|= 4.49e-05  |ddm|= 0.000134
entropy correction =  -0.03876367502129407
rks_ao.ne_frozen =  0
Set gradient conv threshold to 3.16228e-05
tot grids = 190200
init E= -9.12491445347648
HOMO:  -0.1814442732895913 LUMO:  -0.17066153508085455
Fermi energy:      -0.1743742106
[2.0000e+00 2.0000e+00 2.0000e+00 2.0000e+00 1.9178e+00 1.8530e+00
 1.8518e+00 1.6112e+00 1.6088e+00 6.4490e-01 3.6540e-01 6.2092e-02
 6.0685e-02 1.1828e-02 1.1606e-02 9.3661e-04]
entropy correction =  -0.03139440396668871
cycle= 1 E= -12.4354581010003  delta_E= -3.31  |g|= 0.772  |ddm|= 5.23
HOMO:  -0.1328641594157748 LUMO:  -0.12978885116016953
Fermi energy:      -0.1289129279
[2.0000e+00 2.0000e+00 2.0000e+00 2.0000e+00 2.0000e+00 2.0000e+00
 1.9815e+00 1.3919e+00 1.3758e+00 1.0874e+00 5.1116e-02 4.6605e-02
 4.2135e-02 1.1122e-02 1.0143e-02 1.0094e-03 5.8220e-04 5.1358e-04
 2.8261e-04]
entropy correction =  -0.023858090915109577
cycle= 2 E= -12.3586925708912  delta_E= 0.0768  |g|= 0.985  |ddm|=  2.9
HOMO:  -0.21734445504678973 LUMO:  -0.20905815859483218
Fermi energy:      -0.2141708133
[2.0000e+00 2.0000e+00 2.0000e+00 2.0000e+00 1.9885e+00 1.9877e+00
 1.9674e+00 1.3111e+00 1.3071e+00 5.2907e-01 3.9221e-01 3.8770e-01
 9.5336e-02 1.6883e-02 1.5948e-02 1.0033e-03]
entropy correction =  -0.03300777632619631
cycle= 3 E= -12.7445195392748  delta_E= -0.386  |g|= 0.228  |ddm|= 1.38
HOMO:  -0.21800532706699746 LUMO:  -0.21323464615604654
Fermi energy:      -0.2157270387
[2.0000e+00 2.0000e+00 2.0000e+00 2.0000e+00 1.9313e+00 1.8349e+00
 1.7993e+00 1.2271e+00 1.2240e+00 7.5580e-01 7.4232e-01 3.6269e-01
 8.9727e-02 1.6290e-02 1.5759e-02 8.0413e-04]
entropy correction =  -0.041712530763773445
cycle= 4 E= -12.7668268916899  delta_E= -0.0223  |g|= 0.093  |ddm|= 0.548
HOMO:  -0.2181146579803218 LUMO:  -0.2134136142101008
Fermi energy:      -0.2157569872
[2.0000e+00 2.0000e+00 2.0000e+00 2.0000e+00 1.9354e+00 1.8128e+00
 1.7926e+00 1.2374e+00 1.2315e+00 7.6986e-01 7.2250e-01 3.7967e-01
 8.7446e-02 1.5434e-02 1.4556e-02 7.7467e-04]
entropy correction =  -0.04195196002403139
cycle= 5 E= -12.7564545640302  delta_E= 0.0104  |g|= 0.151  |ddm|= 0.357
HOMO:  -0.21774410237027741 LUMO:  -0.21313001725054198
Fermi energy:      -0.2155204381
[2.0000e+00 2.0000e+00 2.0000e+00 2.0000e+00 1.9345e+00 1.8292e+00
 1.7846e+00 1.2279e+00 1.2188e+00 7.6541e-01 7.3692e-01 3.8545e-01
 8.3977e-02 1.7023e-02 1.5468e-02 7.4411e-04]
entropy correction =  -0.04199085193489887
cycle= 6 E= -12.7731980129965  delta_E= -0.0167  |g|= 0.0272  |ddm|= 0.242
HOMO:  -0.21765547942007127 LUMO:  -0.2129395448728549
Fermi energy:      -0.2153073428
[2.0000e+00 2.0000e+00 2.0000e+00 2.0000e+00 1.9333e+00 1.8403e+00
 1.7645e+00 1.2343e+00 1.2306e+00 7.6755e-01 7.3295e-01 3.7946e-01
 8.3198e-02 1.7058e-02 1.6080e-02 7.7127e-04]
entropy correction =  -0.04199963632835579
cycle= 7 E= -12.7724516668086  delta_E= 0.000746  |g|= 0.0422  |ddm|= 0.153
HOMO:  -0.2176368576894924 LUMO:  -0.21272106067676363
Fermi energy:      -0.2152705405
[2.0000e+00 2.0000e+00 2.0000e+00 2.0000e+00 1.9322e+00 1.8078e+00
 1.8009e+00 1.2352e+00 1.2323e+00 7.5044e-01 7.4521e-01 3.7824e-01
 8.3546e-02 1.7046e-02 1.6227e-02 7.9008e-04]
entropy correction =  -0.041998563854427476
cycle= 8 E= -12.7738815843473  delta_E= -0.00143  |g|= 0.00605  |ddm|= 0.104
HOMO:  -0.2177640977169068 LUMO:  -0.21288492251764488
Fermi energy:      -0.2154036673
[2.0000e+00 2.0000e+00 2.0000e+00 2.0000e+00 1.9324e+00 1.8070e+00
 1.7995e+00 1.2345e+00 1.2318e+00 7.5332e-01 7.4706e-01 3.7717e-01
 8.3339e-02 1.6969e-02 1.6190e-02 7.8376e-04]
entropy correction =  -0.04202182390206852
cycle= 9 E= -12.773827281126  delta_E= 5.43e-05  |g|= 0.0104  |ddm|= 0.0208
HOMO:  -0.21786976183179815 LUMO:  -0.21300496270897962
Fermi energy:      -0.2155110176
[2.0000e+00 2.0000e+00 2.0000e+00 2.0000e+00 1.9324e+00 1.8034e+00
 1.8006e+00 1.2336e+00 1.2316e+00 7.5451e-01 7.5058e-01 3.7622e-01
 8.3160e-02 1.6867e-02 1.6226e-02 7.7863e-04]
entropy correction =  -0.042052168182096436
cycle= 10 E= -12.7739060475886  delta_E= -7.88e-05  |g|= 0.00263  |ddm|= 0.0166
HOMO:  -0.2178633940926666 LUMO:  -0.2129892955070295
Fermi energy:      -0.2155041311
[2.0000e+00 2.0000e+00 2.0000e+00 2.0000e+00 1.9324e+00 1.8029e+00
 1.8010e+00 1.2334e+00 1.2316e+00 7.5369e-01 7.5173e-01 3.7618e-01
 8.3163e-02 1.6851e-02 1.6235e-02 7.7845e-04]
entropy correction =  -0.04205370981561936
cycle= 11 E= -12.7739100987648  delta_E= -4.05e-06  |g|= 0.0012  |ddm|= 0.00705
HOMO:  -0.21783662080411395 LUMO:  -0.2129528828770443
Fermi energy:      -0.2154771669
[2.0000e+00 2.0000e+00 2.0000e+00 2.0000e+00 1.9324e+00 1.8029e+00
 1.8016e+00 1.2335e+00 1.2317e+00 7.5280e-01 7.5172e-01 3.7638e-01
 8.3146e-02 1.6877e-02 1.6216e-02 7.7884e-04]
entropy correction =  -0.04204648281340331
cycle= 12 E= -12.7739109107905  delta_E= -8.12e-07  |g|= 0.000499  |ddm|= 0.00326
HOMO:  -0.21782638101660926 LUMO:  -0.21294301285725542
Fermi energy:      -0.2154666023
[2.0000e+00 2.0000e+00 2.0000e+00 2.0000e+00 1.9324e+00 1.8033e+00
 1.8017e+00 1.2335e+00 1.2317e+00 7.5287e-01 7.5110e-01 3.7639e-01
 8.3144e-02 1.6861e-02 1.6229e-02 7.7923e-04]
entropy correction =  -0.0420388570925219
cycle= 13 E= -12.7739112069042  delta_E= -2.96e-07  |g|= 7.86e-05  |ddm|= 0.00169
HOMO:  -0.21782575674985563 LUMO:  -0.2129420669448779
Fermi energy:      -0.2154656652
[2.0000e+00 2.0000e+00 2.0000e+00 2.0000e+00 1.9324e+00 1.8033e+00
 1.8016e+00 1.2335e+00 1.2317e+00 7.5286e-01 7.5116e-01 3.7639e-01
 8.3130e-02 1.6864e-02 1.6229e-02 7.7916e-04]
entropy correction =  -0.04203996438982673
cycle= 14 E= -12.7739112099911  delta_E= -3.09e-09  |g|= 5.05e-05  |ddm|= 0.000351
HOMO:  -0.21782689128296948 LUMO:  -0.21294363753988138
Fermi energy:      -0.2154668568
[2.0000e+00 2.0000e+00 2.0000e+00 2.0000e+00 1.9324e+00 1.8032e+00
 1.8016e+00 1.2335e+00 1.2317e+00 7.5290e-01 7.5116e-01 3.7638e-01
 8.3130e-02 1.6863e-02 1.6228e-02 7.7911e-04]
entropy correction =  -0.0420402959994775
cycle= 15 E= -12.7739112124959  delta_E= -2.5e-09  |g|= 1.78e-05  |ddm|= 0.000193
HOMO:  -0.2178275511255529 LUMO:  -0.21294479433159594
Fermi energy:      -0.2154675573
[2.0000e+00 2.0000e+00 2.0000e+00 2.0000e+00 1.9324e+00 1.8032e+00
 1.8016e+00 1.2335e+00 1.2317e+00 7.5294e-01 7.5115e-01 3.7637e-01
 8.3130e-02 1.6864e-02 1.6228e-02 7.7910e-04]
entropy correction =  -0.04204055196522389
cycle= 16 E= -12.7739112078099  delta_E= 4.69e-09  |g|= 7.96e-05  |ddm|= 0.000155
HOMO:  -0.2178271919020052 LUMO:  -0.21294397782248192
Fermi energy:      -0.2154671568
[2.0000e+00 2.0000e+00 2.0000e+00 2.0000e+00 1.9324e+00 1.8033e+00
 1.8016e+00 1.2335e+00 1.2317e+00 7.5290e-01 7.5117e-01 3.7638e-01
 8.3130e-02 1.6863e-02 1.6229e-02 7.7911e-04]
entropy correction =  -0.04204028291282641
cycle= 17 E= -12.773911212678  delta_E= -4.87e-09  |g|= 9.72e-06  |ddm|= 0.000146
HOMO:  -0.21782728111640917 LUMO:  -0.2129440531836069
Fermi energy:      -0.2154672716
[2.0000e+00 2.0000e+00 2.0000e+00 2.0000e+00 1.9324e+00 1.8032e+00
 1.8016e+00 1.2335e+00 1.2317e+00 7.5290e-01 7.5118e-01 3.7637e-01
 8.3130e-02 1.6863e-02 1.6229e-02 7.7911e-04]
entropy correction =  -0.042040270799569394
cycle= 18 E= -12.7739112126371  delta_E= 4.09e-11  |g|= 1.22e-05  |ddm|= 4.11e-05
HOMO:  -0.21782715215505605 LUMO:  -0.21294422587593914
Fermi energy:      -0.2154671549
[2.0000e+00 2.0000e+00 2.0000e+00 2.0000e+00 1.9324e+00 1.8033e+00
 1.8016e+00 1.2335e+00 1.2317e+00 7.5293e-01 7.5115e-01 3.7638e-01
 8.3130e-02 1.6864e-02 1.6228e-02 7.7911e-04]
entropy correction =  -0.04204019805786526
Extra cycle  E= -12.7739112080152  delta_E= 4.62e-09  |g|= 7.72e-05  |ddm|= 0.000181
entropy correction =  -0.04204019805786526
scf energies:
EA (no vemb contrib.) =  -34.790320873808675
EB (no vemb contrib.) =  -24.951033605780783
W =  -59.63769906184278
P_imp change (scf - non-scf):  0.01481780650447898
P_bath change (scf - non-scf):  0.016995292777820158
|P_frag + P_env - P_ref| =  0.07007449454458563
max element of (P_frag + P_env - P_ref) =  0.0042106508590178185
mo orthogonality:
[[-7.3187e-06  6.7345e-07 -1.5362e-05  1.5201e-02 -1.1571e-05  1.2225e-05
  -1.1770e-05 -2.7785e-05 -7.6509e-05 -3.3330e-05 -7.8588e-05  4.1160e-05
   3.3420e-01 -9.2191e-04 -2.3058e-04  4.5345e-01 -2.4083e-04  1.0448e-03
   7.4308e-05]
 [-3.5296e-05 -2.7598e-05  8.8068e-03  3.4264e-06  7.2697e-06  5.3512e-06
  -5.1148e-05  7.6438e-05 -2.3908e-04  5.5310e-05 -2.3285e-04 -2.5054e-01
   9.0529e-05 -2.1435e-04  1.5156e-04 -2.1228e-04 -1.2391e-03 -8.4835e-03
  -8.7712e-03]
 [-1.6097e-04  1.3553e-03  1.0307e-04  3.8759e-06  5.4787e-05 -4.0925e-06
   1.4496e-05  6.8791e-03  2.1232e-02  4.3345e-05 -2.9426e-05 -2.3191e-03
   4.0155e-06 -5.2973e-04  7.3316e-04 -5.9483e-04  2.0692e-02  7.0540e-01
  -7.0660e-02]
 [ 1.2768e-03 -2.0872e-04  9.4031e-05  5.6778e-06  1.3477e-05 -4.2922e-05
   3.6196e-05 -2.0251e-02  6.9808e-03  3.4419e-05 -1.6106e-04 -1.7702e-03
   5.7683e-04  2.5095e-04  1.0887e-03 -6.0877e-04  1.5419e-02  5.6099e-02
   8.0928e-01]
 [ 9.7376e-06  2.2260e-06 -8.5407e-06 -1.2531e-04  1.4462e-05 -1.9155e-02
  -1.1007e-02 -2.7817e-05 -7.6412e-05  7.2132e-02 -5.3840e-03 -5.0575e-04
   2.6589e-03  8.9304e-01  2.5588e-01  4.1443e-04  1.2450e-03  8.2396e-04
   2.5330e-04]
 [ 2.4416e-06  4.2381e-05  2.4140e-05  5.7156e-05  1.7024e-05 -1.1010e-02
   1.9184e-02  9.8120e-05 -1.0177e-04 -5.3547e-03 -7.2046e-02  3.6643e-04
   1.3781e-03 -2.5584e-01  8.9368e-01 -1.0297e-03 -7.9759e-04 -8.1767e-04
  -1.0202e-04]
 [-4.8382e-05 -3.2378e-05  3.9652e-06 -5.9913e-03  1.1110e-05  5.7146e-05
   1.5983e-05 -9.0261e-05 -3.1625e-06  7.0604e-04 -2.2182e-04 -3.0555e-04
  -7.5048e-01  1.3043e-03  2.1244e-03  5.4542e-01 -3.7089e-04  4.8539e-04
   7.6566e-04]
 [-2.8432e-05  7.0502e-05 -1.3972e-05  4.3992e-05  1.0530e-04  1.9543e-01
  -3.0369e-02 -5.1198e-04 -3.6022e-05  7.0437e-01 -6.6008e-01 -3.0964e-04
   2.9858e-04 -4.1869e-02 -5.9091e-02 -4.6097e-04  1.2227e-04 -8.4162e-05
  -9.2441e-05]
 [-4.7892e-05 -9.2885e-05 -5.5409e-05  1.8596e-04 -6.3507e-05 -3.0992e-02
  -1.9477e-01 -2.2361e-04 -3.0927e-04 -6.6001e-01 -7.0460e-01 -3.8552e-04
  -2.6201e-04  5.9440e-02 -4.1567e-02  2.7829e-04 -2.2184e-04  3.1576e-04
  -1.7687e-04]
 [ 1.9092e-04  1.1532e-04  5.7086e-02 -3.8121e-05 -3.4189e-06  1.1833e-04
  -3.0451e-05 -1.1888e-03 -1.1176e-03 -1.6470e-06 -5.5237e-04  9.3635e-01
  -3.5734e-04  5.5249e-04 -2.1416e-04 -5.8054e-05 -2.7155e-04 -1.8212e-04
  -8.4751e-04]
 [ 2.8452e-02 -9.8527e-03 -1.4894e-04 -5.9134e-05  1.5532e-04  3.1421e-05
  -5.2246e-05  9.7261e-01 -2.6271e-03  2.2850e-04 -5.1125e-04  1.1619e-03
  -7.5186e-05  1.2046e-04 -5.7859e-05  4.8132e-06  9.3979e-04 -9.4131e-04
   1.6083e-02]
 [-9.8688e-03 -2.8356e-02  1.5835e-04  2.0108e-05  3.4771e-04 -1.2023e-05
   5.1458e-05  2.5509e-03  9.7305e-01 -1.8967e-04 -2.7479e-04  1.0961e-03
   6.9990e-05  3.3229e-05  7.1077e-05  1.4236e-04 -6.7189e-04 -3.9922e-03
  -3.3289e-03]
 [-1.8868e-04 -2.2452e-04  7.4897e-04 -7.7321e-01  1.5757e-04 -5.2634e-04
  -9.3863e-05 -7.9131e-05  3.9811e-05  2.0035e-05 -1.9556e-04 -2.2272e-04
  -2.8651e-01  8.5805e-04  2.8707e-04 -3.1417e-01  2.8836e-04 -1.7348e-04
   9.4418e-05]
 [-2.4733e-03 -2.1029e-05  1.2614e-05  2.4710e-04  9.5818e-01 -1.4457e-05
   3.5400e-06  1.1205e-04 -4.3283e-04 -1.2341e-04  2.3857e-05  3.8011e-06
  -3.8989e-05  1.5686e-04  4.2502e-06 -4.7952e-05 -9.0695e-05 -3.0984e-04
   5.1273e-05]]
|P_imp-P_imp_0| =  0.01481780650447898
max(P_imp-P_imp_0) =  0.0009139413116797807
|P_bath-P_bath_0| =  0.016995292777820158
max(P_bath-P_bath_0) =  0.0008387028226293433
 Subspace minimization time 0.000E+00 seconds.
 Line search           time 0.000E+00 seconds.

 Total User time 0.000E+00 seconds.

