#INFO: **** input file is /tigress/xingz/pydmfet/examples/research/Al12/dmfet/least/Al12.py ****
from pydmfet import locints, sdmfet, oep, tools, dfet_ao, proj_ao
from pydmfet.dfet_ao import dfet
from pydmfet.qcwrap.pyscf_rks_ao import rks_ao
from pyscf import gto, scf,dft, ao2mo,cc
import numpy as np
from pyscf.tools import molden, cubegen
import copy,time
from pydmfet.tools.sym import h_lattice_sym_tab

bas = 'stuttgartdz'
ecp = 'stuttgartdz'
temp = 0.005


mol = gto.Mole()
mol.atom = open('Al12.xyz').read()
mol.basis = bas
mol.ecp = ecp
mol.build(max_memory = 4000, verbose=4)

mf = rks_ao(mol,smear_sigma = temp)
mf.xc = 'pbe,pbe'
mf.max_cycle = 50
mf.scf(dm0=None)

natoms = mol.natm
impAtom = np.zeros([natoms], dtype=int)
for i in range(6):
    impAtom[i] = 1

ghost_frag = 1-impAtom
ghost_env = 1-ghost_frag

mol_frag = gto.Mole()
mol_frag.atom = tools.add_ghost(mol.atom, ghost_frag)
mol_frag.basis = bas
mol_frag.ecp = ecp
mol_frag.build(max_memory = 4000,verbose = 4)

mol_env = gto.Mole()
mol_env.atom = tools.add_ghost(mol.atom, ghost_env)
mol_env.basis =  bas
mol_env.ecp = ecp
mol_env.build(max_memory = 4000,verbose = 4)

Ne_frag = 18
Ne_env = 18

boundary_atoms = None
boundary_atoms2 =None

umat = None
umat = np.load("umat.npy")

params = oep.OEPparams(algorithm = 'leastsq', opt_method = 'L-BFGS-B', diffP_tol=1e-3, outer_maxit = 10)
params.options['ftol'] = 1e-9
params.options['gtol'] = 1e-4
params.options['maxiter'] = 300
params.options['svd_thresh'] = 1e-5

theDMFET = dfet.DFET(mf, mol_frag, mol_env,Ne_frag,Ne_env,\
                     boundary_atoms=boundary_atoms, boundary_atoms2=boundary_atoms2,umat = umat,\
                     oep_params=params, smear_sigma=temp, ecw_method = 'hf',mf_method = mf.xc, plot_dens=True)

umat = theDMFET.embedding_potential()
#INFO: ******************** input file end ********************


System: uname_result(system='Linux', node='tiger-i25c1n18', release='3.10.0-957.27.2.el7.x86_64', version='#1 SMP Tue Jul 30 11:12:20 EDT 2019', machine='x86_64', processor='x86_64')  Threads 40
Python 3.7.0 (default, Jun 28 2018, 13:15:42) 
[GCC 7.2.0]
numpy 1.16.4  scipy 1.4.0.dev0+0f78e0f
Date: Mon Aug 19 23:12:49 2019
PySCF version 1.5
PySCF path  /home/xingz/.local/lib/python3.7/site-packages/pyscf

[CONFIG] conf_file None
[INPUT] verbose = 4
[INPUT] num. atoms = 12
[INPUT] num. electrons = 36
[INPUT] charge = 0
[INPUT] spin (= nelec alpha-beta = 2S) = 0
[INPUT] symmetry False subgroup None
[INPUT] Mole.unit = angstrom
[INPUT]  1 Al     8.092960000000   4.046480000000  -0.000000000000 AA   15.293477937060   7.646738968530  -0.000000000000 Bohr
[INPUT]  2 Al     8.092960000000   6.069720000000  -2.023240000000 AA   15.293477937060  11.470108452795  -3.823369484265 Bohr
[INPUT]  3 Al    10.116200000000   4.046480000000  -2.023240000000 AA   19.116847421325   7.646738968530  -3.823369484265 Bohr
[INPUT]  4 Al     6.069720000000   4.046480000000  -2.023240000000 AA   11.470108452795   7.646738968530  -3.823369484265 Bohr
[INPUT]  5 Al     8.092960000000   2.023240000000  -2.023240000000 AA   15.293477937060   3.823369484265  -3.823369484265 Bohr
[INPUT]  6 Al     8.092960000000   4.046480000000  -4.046480000000 AA   15.293477937060   7.646738968530  -7.646738968530 Bohr
[INPUT]  7 Al     6.069720000000   6.069720000000  -0.000000000000 AA   11.470108452795  11.470108452795  -0.000000000000 Bohr
[INPUT]  8 Al    10.116200000000   2.023240000000  -0.000000000000 AA   19.116847421325   3.823369484265  -0.000000000000 Bohr
[INPUT]  9 Al    10.116200000000   6.069720000000  -4.046480000000 AA   19.116847421325  11.470108452795  -7.646738968530 Bohr
[INPUT] 10 Al     6.069720000000   2.023240000000  -0.000000000000 AA   11.470108452795   3.823369484265  -0.000000000000 Bohr
[INPUT] 11 Al     6.069720000000   6.069720000000  -4.046480000000 AA   11.470108452795  11.470108452795  -7.646738968530 Bohr
[INPUT] 12 Al    10.116200000000   2.023240000000  -4.046480000000 AA   19.116847421325   3.823369484265  -7.646738968530 Bohr

nuclear repulsion = 84.8573926838199
number of shells = 48
number of NR pGTOs = 192
number of NR cGTOs = 96
basis = stuttgartdz
ecp = stuttgartdz
CPU time:         4.78
rks_ao.ne_frozen =  0


******** <class 'pydmfet.qcwrap.pyscf_rks_ao.rks_ao'> flags ********
method = rks_ao-RKS-RHF
initial guess = minao
damping factor = 0
level shift factor = 0
DIIS = <class 'pyscf.scf.diis.CDIIS'>
DIIS start cycle = 1
DIIS space = 8
SCF tol = 1e-09
SCF gradient tol = None
max. SCF cycles = 50
direct_scf = False
chkfile to save SCF result = /tmp/tmpxbimewds
max_memory 4000 MB (current use 69 MB)
XC functionals = pbe,pbe
small_rho_cutoff = 1e-07
radial grids: 
    Treutler-Ahlrichs (JCP 102, 346 (M4)) radial grids
    
becke partition: Becke, JCP, 88, 2547 (1988)
pruning grids: <function nwchem_prune at 0x2b52b7e2b400>
grids dens level: 3
symmetrized grids: False
atomic radii adjust function: <function treutler_atomic_radii_adjust at 0x2b52b7e2b378>
Set gradient conv threshold to 3.16228e-05
tot grids = 220800
init E= -21.344783658299
HOMO:  -0.09640875247665456 LUMO:  -0.0891062601572802
Fermi energy:      -0.0887572500
[2.     2.     2.     2.     2.     2.     2.     2.     2.     2.
 2.     2.     1.9995 1.9096 1.7557 1.7557 1.6441 1.6441 1.0349 0.2163
 0.02   0.02  ]
entropy correction =  -0.030126401120555226
cycle= 1 E= -24.0317931623435  delta_E= -2.69  |g|= 0.653  |ddm|= 6.67
HOMO:  -0.23116268121406922 LUMO:  -0.23116268121406688
Fermi energy:      -0.2358858179
[2.     2.     2.     2.     2.     2.     2.     2.     2.     2.
 2.     2.     2.     1.9989 1.9981 1.9981 1.9963 0.5599 0.5599 0.4393
 0.4393 0.0101]
entropy correction =  -0.023039333382987765
cycle= 2 E= -22.75894123893  delta_E= 1.27  |g|= 1.61  |ddm|= 4.31
HOMO:  -0.1864794289436342 LUMO:  -0.17551521715009075
Fermi energy:      -0.1766937420
[2.     2.     2.     2.     2.     2.     2.     2.     2.     2.
 2.     2.     1.9995 1.9702 1.7766 1.7766 1.7524 1.7524 0.8827 0.0807
 0.0044 0.0044]
entropy correction =  -0.02415297614020382
cycle= 3 E= -24.1577819139593  delta_E= -1.4  |g|= 0.177  |ddm|= 3.48
HOMO:  -0.1672330936464332 LUMO:  -0.16668219584287142
Fermi energy:      -0.1626445453
[2.     2.     2.     2.     2.     2.     2.     2.     2.     2.
 2.     2.     1.9999 1.922  1.8341 1.8341 1.4292 1.4292 1.3832 0.1196
 0.0244 0.0244]
entropy correction =  -0.029092388982086662
cycle= 4 E= -24.1758252803636  delta_E= -0.018  |g|= 0.0887  |ddm|= 0.83
HOMO:  -0.16913270192186 LUMO:  -0.1647659994642591
Fermi energy:      -0.1627185946
[2.     2.     2.     2.     2.     2.     2.     2.     2.     2.
 2.     2.     1.9998 1.9364 1.7964 1.7964 1.5659 1.5659 1.2019 0.1144
 0.0115 0.0115]
entropy correction =  -0.028086976616489356
cycle= 5 E= -24.1831548018882  delta_E= -0.00733  |g|= 0.00917  |ddm|= 0.293
HOMO:  -0.17049749264548966 LUMO:  -0.1661181449768928
Fermi energy:      -0.1641279001
[2.     2.     2.     2.     2.     2.     2.     2.     2.     2.
 2.     2.     1.9999 1.9389 1.802  1.802  1.5628 1.5628 1.1964 0.1103
 0.0124 0.0124]
entropy correction =  -0.027959631237355162
cycle= 6 E= -24.1832343076202  delta_E= -7.95e-05  |g|= 0.00113  |ddm|= 0.0422
HOMO:  -0.1705852829372624 LUMO:  -0.16630331880957985
Fermi energy:      -0.1642599608
[2.     2.     2.     2.     2.     2.     2.     2.     2.     2.
 2.     2.     1.9999 1.9387 1.8025 1.8025 1.5598 1.5598 1.2015 0.1105
 0.0124 0.0124]
entropy correction =  -0.02798323806982266
cycle= 7 E= -24.183235542444  delta_E= -1.23e-06  |g|= 0.000895  |ddm|= 0.00747
HOMO:  -0.17054731833013284 LUMO:  -0.16621690815491397
Fermi energy:      -0.1641961314
[2.     2.     2.     2.     2.     2.     2.     2.     2.     2.
 2.     2.     1.9999 1.9385 1.8018 1.8018 1.5616 1.5616 1.1994 0.1109
 0.0124 0.0124]
entropy correction =  -0.027989016591825747
cycle= 8 E= -24.1832361917859  delta_E= -6.49e-07  |g|= 7.71e-05  |ddm|= 0.00356
HOMO:  -0.17053508515500704 LUMO:  -0.1662114728203219
Fermi energy:      -0.1641878969
[2.     2.     2.     2.     2.     2.     2.     2.     2.     2.
 2.     2.     1.9999 1.9385 1.8019 1.8019 1.5613 1.5613 1.1996 0.1108
 0.0124 0.0124]
entropy correction =  -0.0279883844918497
cycle= 9 E= -24.1832362012559  delta_E= -9.47e-09  |g|= 2.11e-05  |ddm|= 0.000544
HOMO:  -0.17053203701183925 LUMO:  -0.16620777273045337
Fermi energy:      -0.1641845192
[2.     2.     2.     2.     2.     2.     2.     2.     2.     2.
 2.     2.     1.9999 1.9385 1.8019 1.8019 1.5613 1.5613 1.1996 0.1108
 0.0124 0.0124]
entropy correction =  -0.027988108712781297
cycle= 10 E= -24.1832362015517  delta_E= -2.96e-10  |g|= 3.03e-06  |ddm|= 6.6e-05
HOMO:  -0.17053311709061808 LUMO:  -0.1662088500124974
Fermi energy:      -0.1641855888
[2.     2.     2.     2.     2.     2.     2.     2.     2.     2.
 2.     2.     1.9999 1.9385 1.8019 1.8019 1.5613 1.5613 1.1996 0.1108
 0.0124 0.0124]
entropy correction =  -0.02798811884046291
Extra cycle  E= -24.1832362015501  delta_E= 1.61e-12  |g|= 3.71e-06  |ddm|= 1.75e-05
converged SCF energy = -24.1832362015501
#INFO: **** input file is /tigress/xingz/pydmfet/examples/research/Al12/dmfet/least/Al12.py ****
from pydmfet import locints, sdmfet, oep, tools, dfet_ao, proj_ao
from pydmfet.dfet_ao import dfet
from pydmfet.qcwrap.pyscf_rks_ao import rks_ao
from pyscf import gto, scf,dft, ao2mo,cc
import numpy as np
from pyscf.tools import molden, cubegen
import copy,time
from pydmfet.tools.sym import h_lattice_sym_tab

bas = 'stuttgartdz'
ecp = 'stuttgartdz'
temp = 0.005


mol = gto.Mole()
mol.atom = open('Al12.xyz').read()
mol.basis = bas
mol.ecp = ecp
mol.build(max_memory = 4000, verbose=4)

mf = rks_ao(mol,smear_sigma = temp)
mf.xc = 'pbe,pbe'
mf.max_cycle = 50
mf.scf(dm0=None)

natoms = mol.natm
impAtom = np.zeros([natoms], dtype=int)
for i in range(6):
    impAtom[i] = 1

ghost_frag = 1-impAtom
ghost_env = 1-ghost_frag

mol_frag = gto.Mole()
mol_frag.atom = tools.add_ghost(mol.atom, ghost_frag)
mol_frag.basis = bas
mol_frag.ecp = ecp
mol_frag.build(max_memory = 4000,verbose = 4)

mol_env = gto.Mole()
mol_env.atom = tools.add_ghost(mol.atom, ghost_env)
mol_env.basis =  bas
mol_env.ecp = ecp
mol_env.build(max_memory = 4000,verbose = 4)

Ne_frag = 18
Ne_env = 18

boundary_atoms = None
boundary_atoms2 =None

umat = None
umat = np.load("umat.npy")

params = oep.OEPparams(algorithm = 'leastsq', opt_method = 'L-BFGS-B', diffP_tol=1e-3, outer_maxit = 10)
params.options['ftol'] = 1e-9
params.options['gtol'] = 1e-4
params.options['maxiter'] = 300
params.options['svd_thresh'] = 1e-5

theDMFET = dfet.DFET(mf, mol_frag, mol_env,Ne_frag,Ne_env,\
                     boundary_atoms=boundary_atoms, boundary_atoms2=boundary_atoms2,umat = umat,\
                     oep_params=params, smear_sigma=temp, ecw_method = 'hf',mf_method = mf.xc, plot_dens=True)

umat = theDMFET.embedding_potential()
#INFO: ******************** input file end ********************


System: uname_result(system='Linux', node='tiger-i25c1n18', release='3.10.0-957.27.2.el7.x86_64', version='#1 SMP Tue Jul 30 11:12:20 EDT 2019', machine='x86_64', processor='x86_64')  Threads 40
Python 3.7.0 (default, Jun 28 2018, 13:15:42) 
[GCC 7.2.0]
numpy 1.16.4  scipy 1.4.0.dev0+0f78e0f
Date: Mon Aug 19 23:13:02 2019
PySCF version 1.5
PySCF path  /home/xingz/.local/lib/python3.7/site-packages/pyscf

[CONFIG] conf_file None
[INPUT] verbose = 4
[INPUT] num. atoms = 12
[INPUT] num. electrons = 18
[INPUT] charge = 0
[INPUT] spin (= nelec alpha-beta = 2S) = 0
[INPUT] symmetry False subgroup None
[INPUT] Mole.unit = angstrom
[INPUT]  1 Al     8.092960000000   4.046480000000  -0.000000000000 AA   15.293477937060   7.646738968530  -0.000000000000 Bohr
[INPUT]  2 Al     8.092960000000   6.069720000000  -2.023240000000 AA   15.293477937060  11.470108452795  -3.823369484265 Bohr
[INPUT]  3 Al    10.116200000000   4.046480000000  -2.023240000000 AA   19.116847421325   7.646738968530  -3.823369484265 Bohr
[INPUT]  4 Al     6.069720000000   4.046480000000  -2.023240000000 AA   11.470108452795   7.646738968530  -3.823369484265 Bohr
[INPUT]  5 Al     8.092960000000   2.023240000000  -2.023240000000 AA   15.293477937060   3.823369484265  -3.823369484265 Bohr
[INPUT]  6 Al     8.092960000000   4.046480000000  -4.046480000000 AA   15.293477937060   7.646738968530  -7.646738968530 Bohr
[INPUT]  7 GHOST-Al   6.069720000000   6.069720000000  -0.000000000000 AA   11.470108452795  11.470108452795  -0.000000000000 Bohr
[INPUT]  8 GHOST-Al  10.116200000000   2.023240000000  -0.000000000000 AA   19.116847421325   3.823369484265  -0.000000000000 Bohr
[INPUT]  9 GHOST-Al  10.116200000000   6.069720000000  -4.046480000000 AA   19.116847421325  11.470108452795  -7.646738968530 Bohr
[INPUT] 10 GHOST-Al   6.069720000000   2.023240000000  -0.000000000000 AA   11.470108452795   3.823369484265  -0.000000000000 Bohr
[INPUT] 11 GHOST-Al   6.069720000000   6.069720000000  -4.046480000000 AA   11.470108452795  11.470108452795  -7.646738968530 Bohr
[INPUT] 12 GHOST-Al  10.116200000000   2.023240000000  -4.046480000000 AA   19.116847421325   3.823369484265  -7.646738968530 Bohr

nuclear repulsion = 23.5047992975816
number of shells = 48
number of NR pGTOs = 192
number of NR cGTOs = 96
basis = stuttgartdz
ecp = stuttgartdz
CPU time:       339.64
#INFO: **** input file is /tigress/xingz/pydmfet/examples/research/Al12/dmfet/least/Al12.py ****
from pydmfet import locints, sdmfet, oep, tools, dfet_ao, proj_ao
from pydmfet.dfet_ao import dfet
from pydmfet.qcwrap.pyscf_rks_ao import rks_ao
from pyscf import gto, scf,dft, ao2mo,cc
import numpy as np
from pyscf.tools import molden, cubegen
import copy,time
from pydmfet.tools.sym import h_lattice_sym_tab

bas = 'stuttgartdz'
ecp = 'stuttgartdz'
temp = 0.005


mol = gto.Mole()
mol.atom = open('Al12.xyz').read()
mol.basis = bas
mol.ecp = ecp
mol.build(max_memory = 4000, verbose=4)

mf = rks_ao(mol,smear_sigma = temp)
mf.xc = 'pbe,pbe'
mf.max_cycle = 50
mf.scf(dm0=None)

natoms = mol.natm
impAtom = np.zeros([natoms], dtype=int)
for i in range(6):
    impAtom[i] = 1

ghost_frag = 1-impAtom
ghost_env = 1-ghost_frag

mol_frag = gto.Mole()
mol_frag.atom = tools.add_ghost(mol.atom, ghost_frag)
mol_frag.basis = bas
mol_frag.ecp = ecp
mol_frag.build(max_memory = 4000,verbose = 4)

mol_env = gto.Mole()
mol_env.atom = tools.add_ghost(mol.atom, ghost_env)
mol_env.basis =  bas
mol_env.ecp = ecp
mol_env.build(max_memory = 4000,verbose = 4)

Ne_frag = 18
Ne_env = 18

boundary_atoms = None
boundary_atoms2 =None

umat = None
umat = np.load("umat.npy")

params = oep.OEPparams(algorithm = 'leastsq', opt_method = 'L-BFGS-B', diffP_tol=1e-3, outer_maxit = 10)
params.options['ftol'] = 1e-9
params.options['gtol'] = 1e-4
params.options['maxiter'] = 300
params.options['svd_thresh'] = 1e-5

theDMFET = dfet.DFET(mf, mol_frag, mol_env,Ne_frag,Ne_env,\
                     boundary_atoms=boundary_atoms, boundary_atoms2=boundary_atoms2,umat = umat,\
                     oep_params=params, smear_sigma=temp, ecw_method = 'hf',mf_method = mf.xc, plot_dens=True)

umat = theDMFET.embedding_potential()
#INFO: ******************** input file end ********************


System: uname_result(system='Linux', node='tiger-i25c1n18', release='3.10.0-957.27.2.el7.x86_64', version='#1 SMP Tue Jul 30 11:12:20 EDT 2019', machine='x86_64', processor='x86_64')  Threads 40
Python 3.7.0 (default, Jun 28 2018, 13:15:42) 
[GCC 7.2.0]
numpy 1.16.4  scipy 1.4.0.dev0+0f78e0f
Date: Mon Aug 19 23:13:02 2019
PySCF version 1.5
PySCF path  /home/xingz/.local/lib/python3.7/site-packages/pyscf

[CONFIG] conf_file None
[INPUT] verbose = 4
[INPUT] num. atoms = 12
[INPUT] num. electrons = 18
[INPUT] charge = 0
[INPUT] spin (= nelec alpha-beta = 2S) = 0
[INPUT] symmetry False subgroup None
[INPUT] Mole.unit = angstrom
[INPUT]  1 GHOST-Al   8.092960000000   4.046480000000  -0.000000000000 AA   15.293477937060   7.646738968530  -0.000000000000 Bohr
[INPUT]  2 GHOST-Al   8.092960000000   6.069720000000  -2.023240000000 AA   15.293477937060  11.470108452795  -3.823369484265 Bohr
[INPUT]  3 GHOST-Al  10.116200000000   4.046480000000  -2.023240000000 AA   19.116847421325   7.646738968530  -3.823369484265 Bohr
[INPUT]  4 GHOST-Al   6.069720000000   4.046480000000  -2.023240000000 AA   11.470108452795   7.646738968530  -3.823369484265 Bohr
[INPUT]  5 GHOST-Al   8.092960000000   2.023240000000  -2.023240000000 AA   15.293477937060   3.823369484265  -3.823369484265 Bohr
[INPUT]  6 GHOST-Al   8.092960000000   4.046480000000  -4.046480000000 AA   15.293477937060   7.646738968530  -7.646738968530 Bohr
[INPUT]  7 Al     6.069720000000   6.069720000000  -0.000000000000 AA   11.470108452795  11.470108452795  -0.000000000000 Bohr
[INPUT]  8 Al    10.116200000000   2.023240000000  -0.000000000000 AA   19.116847421325   3.823369484265  -0.000000000000 Bohr
[INPUT]  9 Al    10.116200000000   6.069720000000  -4.046480000000 AA   19.116847421325  11.470108452795  -7.646738968530 Bohr
[INPUT] 10 Al     6.069720000000   2.023240000000  -0.000000000000 AA   11.470108452795   3.823369484265  -0.000000000000 Bohr
[INPUT] 11 Al     6.069720000000   6.069720000000  -4.046480000000 AA   11.470108452795  11.470108452795  -7.646738968530 Bohr
[INPUT] 12 Al    10.116200000000   2.023240000000  -4.046480000000 AA   19.116847421325   3.823369484265  -7.646738968530 Bohr

nuclear repulsion = 14.0938802665721
number of shells = 48
number of NR pGTOs = 192
number of NR cGTOs = 96
basis = stuttgartdz
ecp = stuttgartdz
CPU time:       340.05


******** <class 'pydmfet.dfet_ao.scf.EmbedSCF'> flags ********
method = EmbedSCF-RKS-RHF
initial guess = minao
damping factor = 0
level shift factor = 0
DIIS = <class 'pyscf.scf.diis.CDIIS'>
DIIS start cycle = 1
DIIS space = 8
SCF tol = 1e-09
SCF gradient tol = None
max. SCF cycles = 50
direct_scf = False
chkfile to save SCF result = /tmp/tmp_m_2ra5k
max_memory 4000 MB (current use 560 MB)
XC functionals = pbe,pbe
small_rho_cutoff = 1e-07
radial grids: 
    Treutler-Ahlrichs (JCP 102, 346 (M4)) radial grids
    
becke partition: Becke, JCP, 88, 2547 (1988)
pruning grids: <function nwchem_prune at 0x2b52b7e2b400>
grids dens level: 3
symmetrized grids: False
atomic radii adjust function: <function treutler_atomic_radii_adjust at 0x2b52b7e2b378>
Set gradient conv threshold to 3.16228e-05
tot grids = 190200
init E= -9.27712607489067
HOMO: -0.24093355394671837 LUMO: -0.23885215491726008
mo_energy:
[-0.3675 -0.2682 -0.2653 -0.265  -0.2595 -0.259  -0.2582 -0.241  -0.2409
 -0.2389 -0.2382 -0.2312 -0.2298 -0.2158]
e_fermi =  -0.24052745239821896
[2.    1.992 1.986 1.985 1.956 1.952 1.943 1.05  1.041 0.834 0.772 0.267
 0.208 0.014]
entropy correction =  -0.03958644532244616
cycle= 1 E= -12.9217202632458  delta_E= -3.64  |g|= 0.855  |ddm|= 4.91
HOMO: -0.4939100853948216 LUMO: -0.44479881965268037
mo_energy:
[-0.862 -0.671 -0.615 -0.615 -0.535 -0.525 -0.524 -0.494 -0.494 -0.445
 -0.441 -0.44  -0.429 -0.423]
e_fermi =  -0.46929055624175203
[2.    2.    2.    2.    2.    2.    2.    1.986 1.986 0.015 0.007 0.006]
entropy correction =  -0.0017551122961903154
cycle= 2 E= -12.8285210537607  delta_E= 0.0932  |g|= 1.08  |ddm|= 3.39
HOMO: -0.38033565101163985 LUMO: -0.36964107884383
mo_energy:
[-0.583 -0.441 -0.415 -0.414 -0.406 -0.4   -0.4   -0.38  -0.38  -0.37
 -0.37  -0.369 -0.36  -0.331]
e_fermi =  -0.3763794394151083
[2.    2.    1.999 1.999 1.994 1.982 1.982 1.384 1.376 0.413 0.408 0.391
 0.07 ]
entropy correction =  -0.030306199005257453
cycle= 3 E= -13.3595225391063  delta_E= -0.531  |g|= 0.209  |ddm|= 1.83
HOMO: -0.3705067557060672 LUMO: -0.3681836807808323
mo_energy:
[-0.555 -0.408 -0.402 -0.401 -0.39  -0.389 -0.385 -0.371 -0.371 -0.368
 -0.365 -0.364 -0.355 -0.325]
e_fermi =  -0.3696303619599812
[2.    1.999 1.997 1.996 1.967 1.957 1.916 1.095 1.087 0.856 0.541 0.483
 0.106]
entropy correction =  -0.03799339412063474
cycle= 4 E= -13.3218497768649  delta_E= 0.0377  |g|= 0.32  |ddm|= 0.884
HOMO: -0.3690806638823745 LUMO: -0.36760158064802306
mo_energy:
[-0.553 -0.407 -0.399 -0.399 -0.389 -0.388 -0.385 -0.369 -0.369 -0.368
 -0.364 -0.364 -0.355 -0.324]
e_fermi =  -0.36878519630874557
[2.    1.999 1.996 1.995 1.964 1.959 1.924 1.063 1.03  0.882 0.551 0.526
 0.111]
entropy correction =  -0.03838100895837336
cycle= 5 E= -13.3647143243949  delta_E= -0.0429  |g|= 0.206  |ddm|= 0.745
HOMO: -0.3657989388285646 LUMO: -0.36505549975102475
mo_energy:
[-0.551 -0.408 -0.395 -0.393 -0.387 -0.386 -0.385 -0.366 -0.366 -0.365
 -0.362 -0.361 -0.351 -0.32 ]
e_fermi =  -0.36619229162210565
[2.    2.    1.994 1.991 1.968 1.962 1.953 1.028 0.961 0.887 0.599 0.559
 0.099]
entropy correction =  -0.03812122010343409
cycle= 6 E= -13.3942751409377  delta_E= -0.0296  |g|= 0.0369  |ddm|= 0.372
HOMO: -0.36612654261317895 LUMO: -0.3657360956451652
mo_energy:
[-0.55  -0.408 -0.395 -0.394 -0.388 -0.385 -0.385 -0.367 -0.366 -0.366
 -0.362 -0.362 -0.351 -0.321]
e_fermi =  -0.3665399946456356
[2.    2.    1.993 1.992 1.973 1.952 1.949 1.091 0.959 0.92  0.544 0.537
 0.091]
entropy correction =  -0.03779265575055145
cycle= 7 E= -13.3897698201893  delta_E= 0.00451  |g|= 0.0752  |ddm|= 0.29
HOMO: -0.3673227499083488 LUMO: -0.36513059948667304
mo_energy:
[-0.55  -0.407 -0.395 -0.394 -0.387 -0.386 -0.385 -0.367 -0.367 -0.365
 -0.362 -0.362 -0.352 -0.321]
e_fermi =  -0.3668863285821779
[2.    1.999 1.993 1.992 1.961 1.959 1.947 1.061 1.044 0.826 0.566 0.563
 0.089]
entropy correction =  -0.03804681449296472
cycle= 8 E= -13.3947712532467  delta_E= -0.005  |g|= 0.0331  |ddm|= 0.211
HOMO: -0.3671277521564898 LUMO: -0.36501938348312146
mo_energy:
[-0.549 -0.407 -0.395 -0.394 -0.386 -0.386 -0.385 -0.367 -0.367 -0.365
 -0.362 -0.362 -0.351 -0.321]
e_fermi =  -0.3667059226211297
[2.    1.999 1.993 1.991 1.961 1.959 1.947 1.048 1.042 0.833 0.569 0.567
 0.089]
entropy correction =  -0.03812327163590405
cycle= 9 E= -13.3953296246294  delta_E= -0.000558  |g|= 0.0179  |ddm|= 0.0596
HOMO: -0.3658272658819061 LUMO: -0.3643580357967347
mo_energy:
[-0.547 -0.405 -0.393 -0.392 -0.386 -0.385 -0.384 -0.366 -0.366 -0.364
 -0.361 -0.361 -0.351 -0.32 ]
e_fermi =  -0.36575101364058055
[2.    1.999 1.992 1.991 1.962 1.96  1.945 1.017 1.008 0.862 0.587 0.585
 0.092]
entropy correction =  -0.0384439298897089
cycle= 10 E= -13.3954972390613  delta_E= -0.000168  |g|= 0.0121  |ddm|= 0.0542
HOMO: -0.3655950041012458 LUMO: -0.364239951153958
mo_energy:
[-0.547 -0.405 -0.393 -0.392 -0.385 -0.385 -0.383 -0.366 -0.366 -0.364
 -0.361 -0.361 -0.35  -0.32 ]
e_fermi =  -0.3655694971207079
[2.    1.999 1.992 1.99  1.963 1.96  1.945 1.008 1.003 0.868 0.591 0.589
 0.093]
entropy correction =  -0.03850034287943016
cycle= 11 E= -13.3955631972576  delta_E= -6.6e-05  |g|= 0.00739  |ddm|= 0.033
HOMO: -0.3652454431123145 LUMO: -0.36405358900713825
mo_energy:
[-0.547 -0.405 -0.393 -0.392 -0.385 -0.385 -0.383 -0.365 -0.365 -0.364
 -0.361 -0.361 -0.35  -0.32 ]
e_fermi =  -0.36533993543260207
[2.    1.999 1.992 1.99  1.963 1.961 1.945 1.008 0.991 0.872 0.596 0.59
 0.094]
entropy correction =  -0.03854226413133647
cycle= 12 E= -13.3955499124322  delta_E= 1.33e-05  |g|= 0.00644  |ddm|= 0.0308
HOMO: -0.3656011670450491 LUMO: -0.36420252454699586
mo_energy:
[-0.547 -0.405 -0.393 -0.392 -0.385 -0.385 -0.383 -0.366 -0.366 -0.364
 -0.361 -0.361 -0.35  -0.32 ]
e_fermi =  -0.36554495333307413
[2.    1.999 1.992 1.99  1.962 1.96  1.945 1.007 1.006 0.867 0.59  0.588
 0.093]
entropy correction =  -0.0384871655613038
cycle= 13 E= -13.3956028088091  delta_E= -5.29e-05  |g|= 0.000353  |ddm|= 0.0211
HOMO: -0.36560980715364516 LUMO: -0.36420871677881766
mo_energy:
[-0.547 -0.405 -0.393 -0.392 -0.385 -0.385 -0.383 -0.366 -0.366 -0.364
 -0.361 -0.361 -0.35  -0.32 ]
e_fermi =  -0.3655563888539468
[2.    1.999 1.992 1.99  1.962 1.96  1.945 1.008 1.005 0.866 0.59  0.588
 0.093]
entropy correction =  -0.03848270100318897
cycle= 14 E= -13.3955971162839  delta_E= 5.69e-06  |g|= 0.00285  |ddm|= 0.0047
HOMO: -0.3656139538163313 LUMO: -0.3642097196850062
mo_energy:
[-0.547 -0.405 -0.393 -0.392 -0.385 -0.385 -0.383 -0.366 -0.366 -0.364
 -0.361 -0.361 -0.35  -0.32 ]
e_fermi =  -0.3655583530200876
[2.    1.999 1.992 1.99  1.962 1.96  1.945 1.008 1.006 0.866 0.59  0.588
 0.093]
entropy correction =  -0.038481624676886726
cycle= 15 E= -13.3956027781934  delta_E= -5.66e-06  |g|= 0.000383  |ddm|= 0.00426
HOMO: -0.3656300893347083 LUMO: -0.3642170803700448
mo_energy:
[-0.547 -0.405 -0.393 -0.392 -0.385 -0.385 -0.383 -0.366 -0.366 -0.364
 -0.361 -0.361 -0.35  -0.32 ]
e_fermi =  -0.36556783351316813
[2.    1.999 1.992 1.99  1.962 1.96  1.945 1.008 1.006 0.866 0.59  0.588
 0.093]
entropy correction =  -0.03848014724771408
cycle= 16 E= -13.395602911937  delta_E= -1.34e-07  |g|= 0.000119  |ddm|= 0.00128
HOMO: -0.36563989102668043 LUMO: -0.3642249869988957
mo_energy:
[-0.547 -0.405 -0.393 -0.392 -0.385 -0.385 -0.383 -0.366 -0.366 -0.364
 -0.361 -0.361 -0.35  -0.32 ]
e_fermi =  -0.3655765707152448
[2.    1.999 1.992 1.99  1.962 1.96  1.945 1.008 1.006 0.866 0.59  0.588
 0.093]
entropy correction =  -0.038479470870179985
cycle= 17 E= -13.3956028298464  delta_E= 8.21e-08  |g|= 0.000342  |ddm|= 0.000947
HOMO: -0.36563935442380846 LUMO: -0.3642245052864896
mo_energy:
[-0.547 -0.405 -0.393 -0.392 -0.385 -0.385 -0.383 -0.366 -0.366 -0.364
 -0.361 -0.361 -0.35  -0.32 ]
e_fermi =  -0.3655760681284016
[2.    1.999 1.992 1.99  1.962 1.96  1.945 1.008 1.006 0.866 0.59  0.588
 0.093]
entropy correction =  -0.03847959155038727
cycle= 18 E= -13.3956028104458  delta_E= 1.94e-08  |g|= 0.000397  |ddm|= 0.000945
HOMO: -0.3656366983663215 LUMO: -0.3642225886172459
mo_energy:
[-0.547 -0.405 -0.393 -0.392 -0.385 -0.385 -0.383 -0.366 -0.366 -0.364
 -0.361 -0.361 -0.35  -0.32 ]
e_fermi =  -0.3655737549355196
[2.    1.999 1.992 1.99  1.962 1.96  1.945 1.008 1.006 0.866 0.59  0.588
 0.093]
entropy correction =  -0.03847995606135394
cycle= 19 E= -13.3956029101189  delta_E= -9.97e-08  |g|= 0.000136  |ddm|= 0.000846
HOMO: -0.3656337965442871 LUMO: -0.3642208105867443
mo_energy:
[-0.547 -0.405 -0.393 -0.392 -0.385 -0.385 -0.383 -0.366 -0.366 -0.364
 -0.361 -0.361 -0.35  -0.32 ]
e_fermi =  -0.3655716118510897
[2.    1.999 1.992 1.99  1.962 1.96  1.945 1.008 1.006 0.866 0.59  0.588
 0.093]
entropy correction =  -0.03848035233325748
cycle= 20 E= -13.3956029097588  delta_E= 3.6e-10  |g|= 0.000165  |ddm|= 0.000483
HOMO: -0.36563234865302546 LUMO: -0.36421983560839755
mo_energy:
[-0.547 -0.405 -0.393 -0.392 -0.385 -0.385 -0.383 -0.366 -0.366 -0.364
 -0.361 -0.361 -0.35  -0.32 ]
e_fermi =  -0.36557051766985044
[2.    1.999 1.992 1.99  1.962 1.96  1.945 1.008 1.006 0.866 0.59  0.588
 0.093]
entropy correction =  -0.038480464678935115
cycle= 21 E= -13.395602926768  delta_E= -1.7e-08  |g|= 3.15e-05  |ddm|= 0.000317
HOMO: -0.3656293312042514 LUMO: -0.3642178985809818
mo_energy:
[-0.547 -0.405 -0.393 -0.392 -0.385 -0.385 -0.383 -0.366 -0.366 -0.364
 -0.361 -0.361 -0.35  -0.32 ]
e_fermi =  -0.36556787907402283
[2.    1.999 1.992 1.99  1.962 1.96  1.945 1.008 1.006 0.866 0.59  0.588
 0.093]
entropy correction =  -0.038481325179804925
cycle= 22 E= -13.3956029262751  delta_E= 4.93e-10  |g|= 4.04e-05  |ddm|= 0.00021
HOMO: -0.365631062355668 LUMO: -0.36421896129927256
mo_energy:
[-0.547 -0.405 -0.393 -0.392 -0.385 -0.385 -0.383 -0.366 -0.366 -0.364
 -0.361 -0.361 -0.35  -0.32 ]
e_fermi =  -0.3655694192265134
[2.    1.999 1.992 1.99  1.962 1.96  1.945 1.008 1.006 0.866 0.59  0.588
 0.093]
entropy correction =  -0.03848064886461969
cycle= 23 E= -13.3956029259566  delta_E= 3.18e-10  |g|= 5.36e-05  |ddm|= 0.000151
HOMO: -0.36563065996460864 LUMO: -0.36421865503107687
mo_energy:
[-0.547 -0.405 -0.393 -0.392 -0.385 -0.385 -0.383 -0.366 -0.366 -0.364
 -0.361 -0.361 -0.35  -0.32 ]
e_fermi =  -0.3655691260014571
[2.    1.999 1.992 1.99  1.962 1.96  1.945 1.008 1.006 0.866 0.59  0.588
 0.093]
entropy correction =  -0.03848061449654415
cycle= 24 E= -13.3956029273156  delta_E= -1.36e-09  |g|= 2.75e-05  |ddm|= 0.000107
HOMO: -0.36563196081321425 LUMO: -0.36421922116999805
mo_energy:
[-0.547 -0.405 -0.393 -0.392 -0.385 -0.385 -0.383 -0.366 -0.366 -0.364
 -0.361 -0.361 -0.35  -0.32 ]
e_fermi =  -0.3655698097502632
[2.    1.999 1.992 1.99  1.962 1.96  1.945 1.008 1.006 0.866 0.59  0.588
 0.093]
entropy correction =  -0.03848047271001135
cycle= 25 E= -13.3956029270511  delta_E= 2.64e-10  |g|= 3.01e-05  |ddm|= 0.000136
HOMO: -0.3656290968790443 LUMO: -0.3642188493950001
mo_energy:
[-0.547 -0.405 -0.393 -0.392 -0.385 -0.385 -0.383 -0.366 -0.366 -0.364
 -0.361 -0.361 -0.35  -0.32 ]
e_fermi =  -0.36556912690490506
[2.    1.999 1.992 1.99  1.962 1.96  1.945 1.008 1.006 0.866 0.59  0.588
 0.093]
entropy correction =  -0.03848094573715219
Extra cycle  E= -13.3956028961146  delta_E= 3.09e-08  |g|= 0.000173  |ddm|= 0.000565
converged SCF energy = -13.3956028961146


******** <class 'pydmfet.dfet_ao.scf.EmbedSCF'> flags ********
method = EmbedSCF-RKS-RHF
initial guess = minao
damping factor = 0
level shift factor = 0
DIIS = <class 'pyscf.scf.diis.CDIIS'>
DIIS start cycle = 1
DIIS space = 8
SCF tol = 1e-09
SCF gradient tol = None
max. SCF cycles = 50
direct_scf = False
chkfile to save SCF result = /tmp/tmpwd6twx6e
max_memory 4000 MB (current use 5464 MB)
XC functionals = pbe,pbe
small_rho_cutoff = 1e-07
radial grids: 
    Treutler-Ahlrichs (JCP 102, 346 (M4)) radial grids
    
becke partition: Becke, JCP, 88, 2547 (1988)
pruning grids: <function nwchem_prune at 0x2b52b7e2b400>
grids dens level: 3
symmetrized grids: False
atomic radii adjust function: <function treutler_atomic_radii_adjust at 0x2b52b7e2b378>
Set gradient conv threshold to 3.16228e-05
tot grids = 190200
init E= -9.1208423329045
HOMO: -0.1808027026763539 LUMO: -0.17020809994818503
mo_energy:
[-0.295 -0.295 -0.264 -0.24  -0.189 -0.186 -0.186 -0.181 -0.181 -0.17
 -0.167 -0.157 -0.157 -0.148]
e_fermi =  -0.17397127730411435
[2.    2.    2.    2.    1.911 1.847 1.843 1.612 1.594 0.64  0.406 0.062
 0.06  0.012 0.011]
entropy correction =  -0.03201424111784969
cycle= 1 E= -12.4359561020551  delta_E= -3.32  |g|= 0.771  |ddm|= 5.23
HOMO: -0.13332873374135065 LUMO: -0.1303084646070659
mo_energy:
[-0.352 -0.352 -0.312 -0.262 -0.239 -0.238 -0.152 -0.133 -0.133 -0.13
 -0.111 -0.111 -0.109 -0.103]
e_fermi =  -0.12934164537787432
[2.    2.    2.    2.    2.    2.    1.98  1.387 1.379 1.096 0.054 0.047
 0.035 0.01  0.009]
entropy correction =  -0.023735099493544402
cycle= 2 E= -12.3653442390377  delta_E= 0.0706  |g|= 0.977  |ddm|= 2.88
HOMO: -0.2162417373127374 LUMO: -0.20820964866655972
mo_energy:
[-0.375 -0.374 -0.342 -0.298 -0.24  -0.239 -0.233 -0.216 -0.216 -0.208
 -0.206 -0.206 -0.198 -0.189]
e_fermi =  -0.21308097997573855
[2.    2.    2.    2.    1.99  1.989 1.966 1.328 1.306 0.548 0.379 0.374
 0.086 0.018 0.017]
entropy correction =  -0.032668544149023745
cycle= 3 E= -12.7392379254058  delta_E= -0.374  |g|= 0.237  |ddm|= 1.35
HOMO: -0.2185624820604416 LUMO: -0.21326707598904535
mo_energy:
[-0.366 -0.365 -0.334 -0.293 -0.234 -0.228 -0.226 -0.219 -0.219 -0.213
 -0.212 -0.209 -0.2   -0.191]
e_fermi =  -0.21580902998926701
[2.    2.    2.    2.    1.944 1.825 1.788 1.284 1.269 0.751 0.631 0.405
 0.079 0.013 0.011]
entropy correction =  -0.0410129741119637
cycle= 4 E= -12.7025398718044  delta_E= 0.0367  |g|= 0.299  |ddm|= 0.695
HOMO: -0.21751669373903512 LUMO: -0.21288456540825912
mo_energy:
[-0.364 -0.364 -0.333 -0.293 -0.232 -0.227 -0.226 -0.218 -0.218 -0.213
 -0.213 -0.208 -0.2   -0.192]
e_fermi =  -0.21537021405708115
[2.    2.    2.    2.    1.928 1.829 1.805 1.241 1.211 0.756 0.744 0.368
 0.082 0.017 0.017]
entropy correction =  -0.04174245755810126
cycle= 5 E= -12.7688182303007  delta_E= -0.0663  |g|= 0.0475  |ddm|= 0.502
HOMO: -0.21734781559984315 LUMO: -0.2128403049591872
mo_energy:
[-0.365 -0.362 -0.332 -0.293 -0.232 -0.228 -0.225 -0.217 -0.217 -0.213
 -0.212 -0.208 -0.199 -0.192]
e_fermi =  -0.2150561977597101
[2.    2.    2.    2.    1.933 1.853 1.75  1.239 1.225 0.782 0.716 0.392
 0.076 0.018 0.015]
entropy correction =  -0.04195269146197153
cycle= 6 E= -12.7682351502895  delta_E= 0.000583  |g|= 0.0561  |ddm|= 0.208
HOMO: -0.21715603944648415 LUMO: -0.2123990982300147
mo_energy:
[-0.364 -0.363 -0.332 -0.292 -0.232 -0.227 -0.225 -0.217 -0.217 -0.212
 -0.212 -0.208 -0.199 -0.191]
e_fermi =  -0.21491747665855856
[2.    2.    2.    2.    1.931 1.827 1.783 1.25  1.22  0.753 0.732 0.392
 0.076 0.017 0.017]
entropy correction =  -0.04192600692565956
cycle= 7 E= -12.7698712661132  delta_E= -0.00164  |g|= 0.0349  |ddm|= 0.186
HOMO: -0.21712632549502256 LUMO: -0.21227275567729853
mo_energy:
[-0.363 -0.363 -0.331 -0.292 -0.231 -0.226 -0.226 -0.217 -0.217 -0.212
 -0.212 -0.208 -0.199 -0.191]
e_fermi =  -0.21482742315379685
[2.    2.    2.    2.    1.93  1.815 1.792 1.253 1.226 0.75  0.735 0.388
 0.076 0.017 0.017]
entropy correction =  -0.04195361729979627
cycle= 8 E= -12.7701657341445  delta_E= -0.000294  |g|= 0.0305  |ddm|= 0.078
HOMO: -0.2171656898715698 LUMO: -0.21224628681546062
mo_energy:
[-0.363 -0.363 -0.331 -0.292 -0.231 -0.226 -0.226 -0.217 -0.217 -0.212
 -0.212 -0.208 -0.199 -0.191]
e_fermi =  -0.21484151010273653
[2.    2.    2.    2.    1.93  1.81  1.797 1.252 1.228 0.746 0.74  0.386
 0.076 0.018 0.017]
entropy correction =  -0.041968863832168336
cycle= 9 E= -12.7708638254008  delta_E= -0.000698  |g|= 0.00568  |ddm|= 0.0602
HOMO: -0.21734194051060143 LUMO: -0.21249638799290418
mo_energy:
[-0.364 -0.363 -0.332 -0.292 -0.232 -0.226 -0.226 -0.218 -0.217 -0.212
 -0.212 -0.208 -0.199 -0.191]
e_fermi =  -0.21504373069470298
[2.    2.    2.    2.    1.93  1.806 1.796 1.252 1.226 0.751 0.744 0.384
 0.076 0.018 0.017]
entropy correction =  -0.04202306729625283
cycle= 10 E= -12.7708754640883  delta_E= -1.16e-05  |g|= 0.00446  |ddm|= 0.0151
HOMO: -0.21736116359550453 LUMO: -0.21250490204257322
mo_energy:
[-0.364 -0.363 -0.332 -0.292 -0.232 -0.226 -0.226 -0.218 -0.217 -0.213
 -0.212 -0.208 -0.199 -0.191]
e_fermi =  -0.21506536158023
[2.    2.    2.    2.    1.93  1.804 1.798 1.252 1.226 0.749 0.746 0.384
 0.076 0.018 0.017]
entropy correction =  -0.04202180222799665
cycle= 11 E= -12.7708886197647  delta_E= -1.32e-05  |g|= 0.00164  |ddm|= 0.0111
HOMO: -0.21736343774316225 LUMO: -0.21249784324121612
mo_energy:
[-0.364 -0.363 -0.332 -0.292 -0.232 -0.226 -0.226 -0.218 -0.217 -0.212
 -0.212 -0.208 -0.199 -0.191]
e_fermi =  -0.2150577834710441
[2.    2.    2.    2.    1.93  1.803 1.799 1.251 1.227 0.749 0.746 0.384
 0.076 0.018 0.017]
entropy correction =  -0.04202652606845262
cycle= 12 E= -12.7708894636623  delta_E= -8.44e-07  |g|= 0.00114  |ddm|= 0.0055
HOMO: -0.21732735550460308 LUMO: -0.21245462412179486
mo_energy:
[-0.364 -0.363 -0.332 -0.292 -0.232 -0.226 -0.226 -0.218 -0.217 -0.212
 -0.212 -0.208 -0.199 -0.191]
e_fermi =  -0.21502748864008933
[2.    2.    2.    2.    1.93  1.804 1.799 1.251 1.226 0.748 0.746 0.384
 0.076 0.018 0.017]
entropy correction =  -0.042001279902777126
cycle= 13 E= -12.770890691494  delta_E= -1.23e-06  |g|= 0.000175  |ddm|= 0.00328
HOMO: -0.21732189143832514 LUMO: -0.21244537100907812
mo_energy:
[-0.364 -0.363 -0.332 -0.292 -0.232 -0.226 -0.226 -0.218 -0.217 -0.212
 -0.212 -0.208 -0.199 -0.191]
e_fermi =  -0.21502023150603417
[2.    2.    2.    2.    1.93  1.804 1.799 1.252 1.226 0.748 0.746 0.384
 0.076 0.018 0.017]
entropy correction =  -0.04200488042218611
cycle= 14 E= -12.7708903682641  delta_E= 3.23e-07  |g|= 0.000659  |ddm|= 0.00172
HOMO: -0.21732382787240215 LUMO: -0.21244963360892963
mo_energy:
[-0.363 -0.363 -0.332 -0.292 -0.232 -0.226 -0.226 -0.218 -0.217 -0.212
 -0.212 -0.208 -0.199 -0.191]
e_fermi =  -0.21502259289673212
[2.    2.    2.    2.    1.93  1.804 1.799 1.252 1.226 0.748 0.746 0.384
 0.076 0.018 0.017]
entropy correction =  -0.04200503498152147
cycle= 15 E= -12.7708907144128  delta_E= -3.46e-07  |g|= 3.43e-05  |ddm|= 0.00138
HOMO: -0.21732464740040597 LUMO: -0.21245082294193804
mo_energy:
[-0.363 -0.363 -0.332 -0.292 -0.232 -0.226 -0.226 -0.218 -0.217 -0.212
 -0.212 -0.208 -0.199 -0.191]
e_fermi =  -0.2150235252250114
[2.    2.    2.    2.    1.93  1.804 1.799 1.252 1.226 0.748 0.746 0.384
 0.076 0.018 0.017]
entropy correction =  -0.04200503494122335
cycle= 16 E= -12.7708907149802  delta_E= -5.67e-10  |g|= 2.39e-05  |ddm|= 9.94e-05
HOMO: -0.21732489435319707 LUMO: -0.21245049885236789
mo_energy:
[-0.363 -0.363 -0.332 -0.292 -0.232 -0.226 -0.226 -0.218 -0.217 -0.212
 -0.212 -0.208 -0.199 -0.191]
e_fermi =  -0.21502397913384733
[2.    2.    2.    2.    1.93  1.804 1.799 1.252 1.226 0.748 0.746 0.384
 0.076 0.018 0.017]
entropy correction =  -0.042004367839417606
Extra cycle  E= -12.770890691729  delta_E= 2.33e-08  |g|= 0.000174  |ddm|= 0.000351
converged SCF energy = -12.770890691729
|umat| =  2.736339847832786
rks_ao.ne_frozen =  0
Set gradient conv threshold to 3.16228e-05
Initial guess from hcore.
HOMO:  -3.5057706914701945 LUMO:  -3.311037345321418
Fermi energy:      -3.4066830804
[2. 2. 2. 2. 2. 2. 2. 2. 2.]
tot grids = 190200
init E= -10.1056572613485
HOMO:  -0.06720000191634336 LUMO:  -0.06697071584772826
Fermi energy:      -0.0713283813
[2.     2.     2.     2.     2.     2.     1.9947 1.9487 0.6091 0.5899
 0.4374 0.4203]
entropy correction =  -0.023983843709014782
cycle= 1 E= -10.1782974044825  delta_E= -0.0726  |g|= 2.77  |ddm|= 7.89
HOMO:  -0.7817196519826444 LUMO:  -0.6510727115258678
Fermi energy:      -0.7150833317
[2. 2. 2. 2. 2. 2. 2. 2. 2.]
entropy correction =  -9.223959304272678e-07
cycle= 2 E= -11.5112816712604  delta_E= -1.33  |g|= 2.04  |ddm|= 6.51
HOMO:  -0.4512854765462692 LUMO:  -0.41825067041641
Fermi energy:      -0.4354071879
[2.0000e+00 2.0000e+00 2.0000e+00 2.0000e+00 1.9997e+00 1.9971e+00
 1.9970e+00 1.9209e+00 1.9198e+00 6.2663e-02 6.1096e-02 2.4563e-02
 1.6522e-02 6.2854e-04]
entropy correction =  -0.007512718980660578
cycle= 3 E= -13.2258164740278  delta_E= -1.71  |g|= 0.549  |ddm|= 3.84
HOMO:  -0.3658057228148465 LUMO:  -0.36517911679462556
Fermi energy:      -0.3681562441
[2.0000e+00 1.9992e+00 1.9969e+00 1.9963e+00 1.9774e+00 1.9752e+00
 1.9013e+00 1.2546e+00 7.6918e-01 7.1078e-01 6.1385e-01 5.6970e-01
 2.3553e-01 1.8382e-04]
entropy correction =  -0.039089002155407886
cycle= 4 E= -13.3716281251731  delta_E= -0.146  |g|= 0.165  |ddm|= 1.65
HOMO:  -0.36967506066988726 LUMO:  -0.3627898507001693
Fermi energy:      -0.3679241833
[2.0000e+00 1.9999e+00 1.9991e+00 1.9987e+00 1.9856e+00 1.9786e+00
 1.9594e+00 1.4525e+00 1.1733e+00 5.2738e-01 4.6502e-01 3.9647e-01
 6.3853e-02 1.5258e-04]
entropy correction =  -0.03235179251781095
cycle= 5 E= -12.9905503172152  delta_E= 0.381  |g|= 0.762  |ddm|= 1.39
HOMO:  -0.3731824927756891 LUMO:  -0.3683362420657906
Fermi energy:      -0.3714318215
[2.0000e+00 1.9999e+00 1.9976e+00 1.9960e+00 1.9732e+00 1.9701e+00
 1.9613e+00 1.1927e+00 1.1733e+00 6.9997e-01 4.9100e-01 4.6317e-01
 8.1636e-02 1.9374e-04]
entropy correction =  -0.03538756143886378
cycle= 6 E= -13.3802686921224  delta_E= -0.39  |g|= 0.139  |ddm|= 1.06
HOMO:  -0.37157850436871265 LUMO:  -0.36965697428520894
Fermi energy:      -0.3706830979
[2.0000e+00 1.9996e+00 1.9968e+00 1.9919e+00 1.9749e+00 1.9541e+00
 1.9326e+00 1.2229e+00 1.0893e+00 8.9775e-01 5.2535e-01 3.4650e-01
 6.8008e-02 2.1195e-04]
entropy correction =  -0.035955517048282266
cycle= 7 E= -13.3663358698215  delta_E= 0.0139  |g|= 0.182  |ddm|= 0.545
HOMO:  -0.3705908887569194 LUMO:  -0.3672710658404855
Fermi energy:      -0.3695469458
[2.0000e+00 1.9994e+00 1.9947e+00 1.9925e+00 1.9621e+00 1.9550e+00
 1.9454e+00 1.1419e+00 1.1040e+00 7.7626e-01 5.3504e-01 5.1383e-01
 7.9620e-02 2.2415e-04]
entropy correction =  -0.03730295530551393
cycle= 8 E= -13.3855457755301  delta_E= -0.0192  |g|= 0.116  |ddm|= 0.449
HOMO:  -0.36872083256919386 LUMO:  -0.3666049810146851
Fermi energy:      -0.3683517464
[2.0000e+00 1.9993e+00 1.9935e+00 1.9913e+00 1.9644e+00 1.9522e+00
 1.9452e+00 1.1263e+00 1.0369e+00 8.2708e-01 5.5230e-01 5.2774e-01
 8.3381e-02 2.2332e-04]
entropy correction =  -0.03776818630484824
cycle= 9 E= -13.391923695919  delta_E= -0.00638  |g|= 0.0665  |ddm|= 0.285
HOMO:  -0.3646719473350983 LUMO:  -0.3638892037545392
Fermi energy:      -0.3650363004
[2.0000e+00 1.9992e+00 1.9915e+00 1.9880e+00 1.9628e+00 1.9605e+00
 1.9422e+00 1.0359e+00 9.6358e-01 8.8579e-01 5.9985e-01 5.7974e-01
 9.0662e-02 2.1625e-04]
entropy correction =  -0.03857983270346252
cycle= 10 E= -13.3920131724005  delta_E= -8.95e-05  |g|= 0.071  |ddm|= 0.238
HOMO:  -0.36389229791459293 LUMO:  -0.3635401458126349
Fermi energy:      -0.3645162918
[2.0000e+00 1.9993e+00 1.9909e+00 1.9888e+00 1.9655e+00 1.9606e+00
 1.9439e+00 1.0059e+00 9.3768e-01 9.0269e-01 6.1666e-01 5.9190e-01
 9.6028e-02 2.1277e-04]
entropy correction =  -0.038705790857135235
cycle= 11 E= -13.3943055809106  delta_E= -0.00229  |g|= 0.0422  |ddm|= 0.18
HOMO:  -0.36446523484543153 LUMO:  -0.36354451576666497
Fermi energy:      -0.3647488235
[2.0000e+00 1.9993e+00 1.9913e+00 1.9895e+00 1.9636e+00 1.9613e+00
 1.9461e+00 1.0027e+00 9.7165e-01 8.8015e-01 6.0368e-01 5.9592e-01
 9.4437e-02 2.1565e-04]
entropy correction =  -0.03858725861319016
cycle= 12 E= -13.3955484885479  delta_E= -0.00124  |g|= 0.0118  |ddm|= 0.106
HOMO:  -0.3655536878113005 LUMO:  -0.3641694732440843
Fermi energy:      -0.3655012308
[2.0000e+00 1.9993e+00 1.9920e+00 1.9903e+00 1.9622e+00 1.9601e+00
 1.9447e+00 1.0105e+00 1.0052e+00 8.6761e-01 5.8832e-01 5.8600e-01
 9.3368e-02 2.1938e-04]
entropy correction =  -0.03848780377077493
cycle= 13 E= -13.3957125092143  delta_E= -0.000164  |g|= 0.00181  |ddm|= 0.0419
HOMO:  -0.36566647358604654 LUMO:  -0.36424181150560314
Fermi energy:      -0.3655994784
[2.0000e+00 1.9993e+00 1.9919e+00 1.9903e+00 1.9627e+00 1.9597e+00
 1.9452e+00 1.0111e+00 1.0067e+00 8.6506e-01 5.8910e-01 5.8566e-01
 9.2927e-02 2.1890e-04]
entropy correction =  -0.038470205543914754
cycle= 14 E= -13.3957066622567  delta_E= 5.85e-06  |g|= 0.00301  |ddm|= 0.0111
HOMO:  -0.36571567014374917 LUMO:  -0.36426717215573384
Fermi energy:      -0.3656330748
[2.0000e+00 1.9993e+00 1.9920e+00 1.9903e+00 1.9623e+00 1.9602e+00
 1.9452e+00 1.0105e+00 1.0083e+00 8.6425e-01 5.8834e-01 5.8627e-01
 9.2824e-02 2.1886e-04]
entropy correction =  -0.03846534983087324
cycle= 15 E= -13.3957149507482  delta_E= -8.29e-06  |g|= 0.000777  |ddm|= 0.00884
HOMO:  -0.3657228654585691 LUMO:  -0.36427957135642336
Fermi energy:      -0.3656407014
[2.0000e+00 1.9993e+00 1.9919e+00 1.9903e+00 1.9623e+00 1.9601e+00
 1.9450e+00 1.0105e+00 1.0082e+00 8.6472e-01 5.8832e-01 5.8625e-01
 9.2870e-02 2.1918e-04]
entropy correction =  -0.03847308342360812
cycle= 16 E= -13.3957152469877  delta_E= -2.96e-07  |g|= 0.00074  |ddm|= 0.00268
HOMO:  -0.3657219831419856 LUMO:  -0.36428074109729025
Fermi energy:      -0.3656382524
[2.0000e+00 1.9993e+00 1.9919e+00 1.9903e+00 1.9623e+00 1.9601e+00
 1.9449e+00 1.0099e+00 1.0084e+00 8.6508e-01 5.8786e-01 5.8688e-01
 9.2900e-02 2.1933e-04]
entropy correction =  -0.038478158348473034
cycle= 17 E= -13.3957124303306  delta_E= 2.82e-06  |g|= 0.00202  |ddm|= 0.0048
HOMO:  -0.36572596176743005 LUMO:  -0.3642812777314495
Fermi energy:      -0.3656417661
[2.0000e+00 1.9993e+00 1.9919e+00 1.9903e+00 1.9624e+00 1.9600e+00
 1.9450e+00 1.0103e+00 1.0084e+00 8.6478e-01 5.8844e-01 5.8603e-01
 9.2883e-02 2.1916e-04]
entropy correction =  -0.03847284045146102
cycle= 18 E= -13.3957145917748  delta_E= -2.16e-06  |g|= 0.0011  |ddm|= 0.00527
HOMO:  -0.36570176937983156 LUMO:  -0.36426713761998386
Fermi energy:      -0.3656237586
[2.0000e+00 1.9993e+00 1.9919e+00 1.9903e+00 1.9623e+00 1.9601e+00
 1.9450e+00 1.0098e+00 1.0078e+00 8.6516e-01 5.8855e-01 5.8662e-01
 9.2915e-02 2.1917e-04]
entropy correction =  -0.03847784654623307
cycle= 19 E= -13.3957155258631  delta_E= -9.34e-07  |g|= 0.000436  |ddm|= 0.00279
HOMO:  -0.3657126133441985 LUMO:  -0.36427258515592303
Fermi energy:      -0.3656306258
[2.0000e+00 1.9993e+00 1.9919e+00 1.9903e+00 1.9623e+00 1.9601e+00
 1.9450e+00 1.0098e+00 1.0082e+00 8.6502e-01 5.8835e-01 5.8651e-01
 9.2908e-02 2.1916e-04]
entropy correction =  -0.03847565642168831
cycle= 20 E= -13.3957156614845  delta_E= -1.36e-07  |g|= 9.95e-05  |ddm|= 0.000994
HOMO:  -0.36569896858957684 LUMO:  -0.3642648020552144
Fermi energy:      -0.3656205294
[2.0000e+00 1.9993e+00 1.9919e+00 1.9903e+00 1.9624e+00 1.9601e+00
 1.9450e+00 1.0097e+00 1.0078e+00 8.6525e-01 5.8849e-01 5.8664e-01
 9.2936e-02 2.1914e-04]
entropy correction =  -0.03847764386204145
cycle= 21 E= -13.3957156647013  delta_E= -3.22e-09  |g|= 6.84e-05  |ddm|= 0.000366
HOMO:  -0.36570426589852517 LUMO:  -0.36426755206700334
Fermi energy:      -0.3656240059
[2.0000e+00 1.9993e+00 1.9919e+00 1.9903e+00 1.9623e+00 1.9601e+00
 1.9450e+00 1.0097e+00 1.0080e+00 8.6518e-01 5.8841e-01 5.8660e-01
 9.2929e-02 2.1914e-04]
entropy correction =  -0.0384768656139013
cycle= 22 E= -13.3957156670997  delta_E= -2.4e-09  |g|= 4.22e-05  |ddm|= 0.000219
HOMO:  -0.3657048075405304 LUMO:  -0.36426814882998537
Fermi energy:      -0.3656247425
[2.0000e+00 1.9993e+00 1.9919e+00 1.9903e+00 1.9623e+00 1.9601e+00
 1.9450e+00 1.0097e+00 1.0080e+00 8.6517e-01 5.8842e-01 5.8657e-01
 9.2928e-02 2.1915e-04]
entropy correction =  -0.038476771530779795
cycle= 23 E= -13.3957156687158  delta_E= -1.62e-09  |g|= 8.86e-06  |ddm|= 0.000113
HOMO:  -0.36570562725470696 LUMO:  -0.36426858600062506
Fermi energy:      -0.3656254498
[2.0000e+00 1.9993e+00 1.9919e+00 1.9903e+00 1.9623e+00 1.9601e+00
 1.9450e+00 1.0098e+00 1.0080e+00 8.6514e-01 5.8841e-01 5.8657e-01
 9.2924e-02 2.1914e-04]
entropy correction =  -0.038476522447464856
cycle= 24 E= -13.3957156684162  delta_E= 3e-10  |g|= 1.97e-05  |ddm|= 7.04e-05
HOMO:  -0.36570672971466095 LUMO:  -0.3642688229623129
Fermi energy:      -0.3656256368
[2.0000e+00 1.9993e+00 1.9919e+00 1.9903e+00 1.9624e+00 1.9601e+00
 1.9450e+00 1.0097e+00 1.0081e+00 8.6515e-01 5.8841e-01 5.8656e-01
 9.2925e-02 2.1915e-04]
entropy correction =  -0.038476646118355745
Extra cycle  E= -13.3957156502795  delta_E= 1.81e-08  |g|= 0.000145  |ddm|= 0.000371
entropy correction =  -0.038476646118355745
rks_ao.ne_frozen =  0
Set gradient conv threshold to 3.16228e-05
Initial guess from hcore.
HOMO:  -2.5695841304714278 LUMO:  -2.5691655001523523
Fermi energy:      -2.5700555923
[2.0000e+00 2.0000e+00 2.0000e+00 2.0000e+00 2.0000e+00 2.0000e+00
 2.0000e+00 1.9979e+00 9.5289e-01 9.1123e-01 6.5232e-02 6.2365e-02
 4.9909e-03 4.7047e-03 7.4788e-04]
tot grids = 190200
init E= -9.7025857812179
HOMO:  0.01998939494558059 LUMO:  0.022922230817997637
Fermi energy:       0.0200572632
[2.     2.     2.     2.     2.     2.     1.9952 1.3343 1.0068 0.7211
 0.4079 0.2344 0.1114 0.0922 0.045  0.0378 0.0081 0.0031 0.0027]
entropy correction =  -0.035185175080539116
cycle= 1 E= -10.9794617486316  delta_E= -1.28  |g|= 2.09  |ddm|= 9.46
HOMO:  -0.45014512914742677 LUMO:  -0.4422936312409451
Fermi energy:      -0.4453373144
[2.0000e+00 2.0000e+00 2.0000e+00 2.0000e+00 2.0000e+00 2.0000e+00
 1.9991e+00 1.4940e+00 1.4469e+00 7.0469e-01 1.7295e-01 1.5205e-01
 2.8293e-02 1.8946e-03]
entropy correction =  -0.02453834339722604
cycle= 2 E= -11.0358217890142  delta_E= -0.0564  |g|= 2.13  |ddm|= 9.27
HOMO:  -0.2954114264702982 LUMO:  -0.281965228375821
Fermi energy:      -0.2872496745
[2.     2.     2.     2.     1.9962 1.9804 1.9692 1.6843 1.673  0.5158
 0.0679 0.0603 0.0455 0.0039 0.0036]
entropy correction =  -0.02020194939431746
cycle= 3 E= -12.2927805860374  delta_E= -1.26  |g|= 0.874  |ddm|= 1.87
HOMO:  -0.2584733083988743 LUMO:  -0.2555490783682882
Fermi energy:      -0.2568481025
[2.0000e+00 2.0000e+00 2.0000e+00 2.0000e+00 1.9991e+00 1.9535e+00
 1.9066e+00 1.7239e+00 1.1611e+00 8.7082e-01 1.5676e-01 1.5041e-01
 7.4799e-02 1.9783e-03 8.1339e-04 1.4103e-04]
entropy correction =  -0.027827115103724154
cycle= 4 E= -11.5022577864476  delta_E= 0.791  |g|=  1.3  |ddm|= 2.17
HOMO:  -0.23735892433522976 LUMO:  -0.2306829586466873
Fermi energy:      -0.2345288731
[2.0000e+00 2.0000e+00 2.0000e+00 2.0000e+00 1.9696e+00 1.9348e+00
 1.8466e+00 1.3035e+00 1.2757e+00 6.3331e-01 6.2799e-01 3.0249e-01
 6.6532e-02 2.5014e-02 1.4055e-02 3.7293e-04]
entropy correction =  -0.037222529969714424
cycle= 5 E= -12.7576942991584  delta_E= -1.26  |g|= 0.124  |ddm|= 2.08
HOMO:  -0.21627153759662918 LUMO:  -0.21411969320192759
Fermi energy:      -0.2150466803
[2.0000e+00 2.0000e+00 2.0000e+00 2.0000e+00 1.9569e+00 1.9418e+00
 1.7653e+00 1.5074e+00 1.1219e+00 9.0757e-01 4.2112e-01 2.4530e-01
 1.0260e-01 1.6838e-02 1.2871e-02 4.0961e-04]
entropy correction =  -0.0370866016669572
cycle= 6 E= -12.5551539036226  delta_E= 0.203  |g|= 0.525  |ddm|= 1.36
HOMO:  -0.21689257010418242 LUMO:  -0.21236627476955947
Fermi energy:      -0.2143298585
[2.0000e+00 2.0000e+00 2.0000e+00 2.0000e+00 1.9276e+00 1.7670e+00
 1.7543e+00 1.2872e+00 1.2508e+00 8.0613e-01 7.3100e-01 3.5619e-01
 8.2594e-02 2.0580e-02 1.6030e-02 5.5491e-04]
entropy correction =  -0.04278592542694122
cycle= 7 E= -12.7645111632435  delta_E= -0.209  |g|= 0.0843  |ddm|= 1.03
HOMO:  -0.2172442368333997 LUMO:  -0.21303627184241275
Fermi energy:      -0.2148997351
[2.0000e+00 2.0000e+00 2.0000e+00 2.0000e+00 1.9337e+00 1.8457e+00
 1.7150e+00 1.2567e+00 1.2302e+00 8.1578e-01 7.0645e-01 3.8342e-01
 7.8293e-02 1.7359e-02 1.6929e-02 5.0072e-04]
entropy correction =  -0.042335033646313705
cycle= 8 E= -12.7624612268433  delta_E= 0.00205  |g|= 0.104  |ddm|= 0.292
HOMO:  -0.21730247954946302 LUMO:  -0.21246034271856581
Fermi energy:      -0.2149385055
[2.0000e+00 2.0000e+00 2.0000e+00 2.0000e+00 1.9322e+00 1.8106e+00
 1.7785e+00 1.2560e+00 1.2321e+00 7.5714e-01 7.3427e-01 3.8806e-01
 7.6791e-02 1.7439e-02 1.6332e-02 4.9792e-04]
entropy correction =  -0.042106219419486626
cycle= 9 E= -12.7656300131019  delta_E= -0.00317  |g|= 0.083  |ddm|= 0.232
HOMO:  -0.2162553572880312 LUMO:  -0.2114049342980798
Fermi energy:      -0.2139682140
[2.0000e+00 2.0000e+00 2.0000e+00 2.0000e+00 1.9292e+00 1.8231e+00
 1.7961e+00 1.2493e+00 1.2248e+00 7.4914e-01 7.2837e-01 3.8824e-01
 7.6871e-02 1.7787e-02 1.6582e-02 5.1277e-04]
entropy correction =  -0.04184212778585327
cycle= 10 E= -12.7703611731851  delta_E= -0.00473  |g|= 0.0257  |ddm|= 0.15
HOMO:  -0.21710503619594265 LUMO:  -0.212192226841805
Fermi energy:      -0.2147778858
[2.0000e+00 2.0000e+00 2.0000e+00 2.0000e+00 1.9295e+00 1.8060e+00
 1.7978e+00 1.2539e+00 1.2286e+00 7.4705e-01 7.4182e-01 3.8403e-01
 7.6247e-02 1.7614e-02 1.6928e-02 4.9876e-04]
entropy correction =  -0.04198735326848376
cycle= 11 E= -12.770525591185  delta_E= -0.000164  |g|= 0.0225  |ddm|= 0.0822
HOMO:  -0.21730058945584588 LUMO:  -0.21249107045525611
Fermi energy:      -0.2149919914
[2.0000e+00 2.0000e+00 2.0000e+00 2.0000e+00 1.9296e+00 1.8064e+00
 1.7917e+00 1.2517e+00 1.2268e+00 7.5499e-01 7.4403e-01 3.8338e-01
 7.6199e-02 1.7799e-02 1.6741e-02 4.9424e-04]
entropy correction =  -0.04207602502116319
cycle= 12 E= -12.7708547856035  delta_E= -0.000329  |g|= 0.00732  |ddm|= 0.05
HOMO:  -0.217320766348827 LUMO:  -0.2124600252705815
Fermi energy:      -0.2150201254
[2.0000e+00 2.0000e+00 2.0000e+00 2.0000e+00 1.9298e+00 1.8043e+00
 1.7987e+00 1.2512e+00 1.2261e+00 7.4944e-01 7.4558e-01 3.8384e-01
 7.6044e-02 1.7744e-02 1.6733e-02 4.9395e-04]
entropy correction =  -0.042013210680282194
cycle= 13 E= -12.7708838028299  delta_E= -2.9e-05  |g|= 0.00389  |ddm|= 0.0223
HOMO:  -0.2173350398334746 LUMO:  -0.21246589674162958
Fermi energy:      -0.2150375192
[2.0000e+00 2.0000e+00 2.0000e+00 2.0000e+00 1.9298e+00 1.8042e+00
 1.8008e+00 1.2514e+00 1.2258e+00 7.4836e-01 7.4462e-01 3.8413e-01
 7.5920e-02 1.7673e-02 1.6782e-02 4.9418e-04]
entropy correction =  -0.04198558308655987
cycle= 14 E= -12.7708943085355  delta_E= -1.05e-05  |g|= 0.0015  |ddm|= 0.00957
HOMO:  -0.21732753430100737 LUMO:  -0.21245252626447142
Fermi energy:      -0.2150245531
[2.0000e+00 2.0000e+00 2.0000e+00 2.0000e+00 1.9297e+00 1.8054e+00
 1.7986e+00 1.2514e+00 1.2263e+00 7.4832e-01 7.4526e-01 3.8406e-01
 7.5941e-02 1.7741e-02 1.6739e-02 4.9469e-04]
entropy correction =  -0.041998901148461935
cycle= 15 E= -12.7708949766908  delta_E= -6.68e-07  |g|= 0.00121  |ddm|= 0.00523
HOMO:  -0.21732540652258597 LUMO:  -0.21244798932647654
Fermi energy:      -0.2150239697
[2.0000e+00 2.0000e+00 2.0000e+00 2.0000e+00 1.9297e+00 1.8043e+00
 1.7995e+00 1.2516e+00 1.2262e+00 7.4795e-01 7.4585e-01 3.8405e-01
 7.5943e-02 1.7725e-02 1.6760e-02 4.9470e-04]
entropy correction =  -0.04200282085198875
cycle= 16 E= -12.7708961494611  delta_E= -1.17e-06  |g|= 0.000193  |ddm|= 0.00293
HOMO:  -0.217329402175291 LUMO:  -0.21245496021921206
Fermi energy:      -0.2150281311
[2.0000e+00 2.0000e+00 2.0000e+00 2.0000e+00 1.9297e+00 1.8043e+00
 1.7992e+00 1.2516e+00 1.2261e+00 7.4822e-01 7.4586e-01 3.8407e-01
 7.5935e-02 1.7723e-02 1.6759e-02 4.9451e-04]
entropy correction =  -0.042006229280948805
cycle= 17 E= -12.7708961786949  delta_E= -2.92e-08  |g|= 5.36e-05  |ddm|= 0.000523
HOMO:  -0.2173306979522687 LUMO:  -0.21245660935943858
Fermi energy:      -0.2150292324
[2.0000e+00 2.0000e+00 2.0000e+00 2.0000e+00 1.9297e+00 1.8043e+00
 1.7992e+00 1.2516e+00 1.2262e+00 7.4827e-01 7.4588e-01 3.8404e-01
 7.5936e-02 1.7724e-02 1.6759e-02 4.9452e-04]
entropy correction =  -0.042006821943296926
cycle= 18 E= -12.7708961749659  delta_E= 3.73e-09  |g|= 8.32e-05  |ddm|= 0.000305
HOMO:  -0.21732841681103576 LUMO:  -0.21245452312854077
Fermi energy:      -0.2150271980
[2.0000e+00 2.0000e+00 2.0000e+00 2.0000e+00 1.9297e+00 1.8044e+00
 1.7992e+00 1.2516e+00 1.2261e+00 7.4826e-01 7.4578e-01 3.8405e-01
 7.5935e-02 1.7724e-02 1.6758e-02 4.9456e-04]
entropy correction =  -0.04200546057683379
cycle= 19 E= -12.7708961596984  delta_E= 1.53e-08  |g|= 0.000166  |ddm|= 0.000357
HOMO:  -0.21732927639927657 LUMO:  -0.2124548528895566
Fermi energy:      -0.2150280915
[2.0000e+00 2.0000e+00 2.0000e+00 2.0000e+00 1.9297e+00 1.8043e+00
 1.7992e+00 1.2516e+00 1.2261e+00 7.4821e-01 7.4587e-01 3.8405e-01
 7.5934e-02 1.7723e-02 1.6759e-02 4.9453e-04]
entropy correction =  -0.042005931358989994
cycle= 20 E= -12.770896180811  delta_E= -2.11e-08  |g|= 1.91e-05  |ddm|= 0.000303
HOMO:  -0.2173303107906015 LUMO:  -0.21245592630686289
Fermi energy:      -0.2150290752
[2.0000e+00 2.0000e+00 2.0000e+00 2.0000e+00 1.9297e+00 1.8043e+00
 1.7992e+00 1.2516e+00 1.2261e+00 7.4822e-01 7.4591e-01 3.8404e-01
 7.5934e-02 1.7723e-02 1.6759e-02 4.9451e-04]
entropy correction =  -0.04200647198715573
cycle= 21 E= -12.7708961796289  delta_E= 1.18e-09  |g|= 4.37e-05  |ddm|= 0.00011
HOMO:  -0.2173294363032934 LUMO:  -0.21245502801825486
Fermi energy:      -0.2150282512
[2.0000e+00 2.0000e+00 2.0000e+00 2.0000e+00 1.9297e+00 1.8043e+00
 1.7992e+00 1.2516e+00 1.2261e+00 7.4821e-01 7.4588e-01 3.8405e-01
 7.5934e-02 1.7723e-02 1.6759e-02 4.9452e-04]
entropy correction =  -0.042005938434629096
cycle= 22 E= -12.7708961810747  delta_E= -1.45e-09  |g|= 7.59e-06  |ddm|= 9.34e-05
HOMO:  -0.2173292518970116 LUMO:  -0.21245470643968986
Fermi energy:      -0.2150280830
[2.0000e+00 2.0000e+00 2.0000e+00 2.0000e+00 1.9297e+00 1.8043e+00
 1.7992e+00 1.2516e+00 1.2261e+00 7.4820e-01 7.4588e-01 3.8405e-01
 7.5933e-02 1.7723e-02 1.6759e-02 4.9453e-04]
entropy correction =  -0.04200580886337151
cycle= 23 E= -12.7708961808803  delta_E= 1.94e-10  |g|= 1.74e-05  |ddm|= 5.05e-05
HOMO:  -0.2173303422129697 LUMO:  -0.212456358093269
Fermi energy:      -0.2150291025
[2.0000e+00 2.0000e+00 2.0000e+00 2.0000e+00 1.9297e+00 1.8043e+00
 1.7991e+00 1.2516e+00 1.2261e+00 7.4826e-01 7.4588e-01 3.8405e-01
 7.5933e-02 1.7724e-02 1.6758e-02 4.9450e-04]
entropy correction =  -0.04200653814040435
Extra cycle  E= -12.7708961711822  delta_E= 9.7e-09  |g|= 0.000112  |ddm|= 0.000252
degenerate subspace detected:
nsub = 2
subspace 1:
8, 9, 
subspace 2:
11, 12, 

 Adding contributions from fluctuation of occupation numbers.
degenerate subspace detected:
nsub = 1
subspace 1:
10, 11, 

 Adding contributions from fluctuation of occupation numbers.
entropy correction =  -0.04200653814040435
2-norm (grad),       max(grad):
0.053211157853438114 ,  0.004800777242152027
time of hessian construction : 37.480  (cpu),  1.005  (wall) 
time of hessian construction : 29.090  (cpu),  0.737  (wall) 
f =  0.0014157136600517544
|umat| =  3.081964349637963
rks_ao.ne_frozen =  0
Set gradient conv threshold to 3.16228e-05
Initial guess from hcore.
HOMO:  -3.547831325579061 LUMO:  -3.5200454253632865
Fermi energy:      -3.5343742726
[2.     2.     2.     2.     2.     2.     2.     2.     1.873  0.1077
 0.0192]
tot grids = 190200
init E= -15.535678526936
HOMO:  -0.2202024937073896 LUMO:  -0.1869910125228078
Fermi energy:      -0.2036265474
[2.0000e+00 2.0000e+00 2.0000e+00 2.0000e+00 2.0000e+00 2.0000e+00
 2.0000e+00 1.9995e+00 1.9299e+00 6.9306e-02 1.2553e-03]
entropy correction =  -0.0031013722234149977
cycle= 1 E= -16.8806582205179  delta_E= -1.34  |g|= 2.58  |ddm|= 48.8
HOMO:  -0.8925548644239426 LUMO:  -0.8793671476331306
Fermi energy:      -0.8859628539
[2.0000e+00 2.0000e+00 2.0000e+00 2.0000e+00 2.0000e+00 2.0000e+00
 2.0000e+00 1.9997e+00 1.5778e+00 4.2192e-01 5.6996e-04]
entropy correction =  -0.010348035278599536
cycle= 2 E= -18.0823876798197  delta_E= -1.2  |g|= 1.82  |ddm|= 19.6
HOMO:  -0.5714631531049996 LUMO:  -0.5414586675838314
Fermi energy:      -0.5565487325
[2.0000e+00 2.0000e+00 2.0000e+00 2.0000e+00 2.0000e+00 2.0000e+00
 2.0000e+00 2.0000e+00 1.9036e+00 9.3237e-02 2.9108e-03 3.0569e-04]
entropy correction =  -0.0039440901664167805
cycle= 3 E= -19.028045746559  delta_E= -0.946  |g|= 0.832  |ddm|= 13.6
HOMO:  -0.5697088993266164 LUMO:  -0.5401955768049062
Fermi energy:      -0.5549513531
[2.     2.     2.     2.     2.     2.     1.9983 1.9945 1.9007 0.0994
 0.0071]
entropy correction =  -0.0044459559549141275
cycle= 4 E= -19.2649777718865  delta_E= -0.237  |g|= 0.375  |ddm|= 2.91
HOMO:  -0.5806890360655398 LUMO:  -0.5557947125051743
Fermi energy:      -0.5685187722
[2.0000e+00 2.0000e+00 2.0000e+00 2.0000e+00 2.0000e+00 2.0000e+00
 1.9997e+00 1.9988e+00 1.8388e+00 1.4555e-01 1.5970e-02 1.2788e-03]
entropy correction =  -0.00599707544848087
cycle= 5 E= -19.313103776746  delta_E= -0.0481  |g|= 0.164  |ddm|= 1.48
HOMO:  -0.5815990761326458 LUMO:  -0.5530242219476552
Fermi energy:      -0.5679683273
[2.0000e+00 2.0000e+00 2.0000e+00 2.0000e+00 2.0000e+00 2.0000e+00
 1.9998e+00 1.9993e+00 1.8771e+00 9.5867e-02 2.7008e-02 9.2220e-04]
entropy correction =  -0.005030338549130267
cycle= 6 E= -19.3174683578488  delta_E= -0.00436  |g|= 0.14  |ddm|= 0.746
HOMO:  -0.5819718949926843 LUMO:  -0.5562890948371199
Fermi energy:      -0.5694881027
[2.0000e+00 2.0000e+00 2.0000e+00 2.0000e+00 2.0000e+00 2.0000e+00
 1.9995e+00 1.9989e+00 1.8478e+00 1.3324e-01 1.9735e-02 7.8065e-04]
entropy correction =  -0.0057970974233218535
cycle= 7 E= -19.3267473660471  delta_E= -0.00928  |g|= 0.0197  |ddm|= 0.357
HOMO:  -0.5815558770428421 LUMO:  -0.5557616296476745
Fermi energy:      -0.5690262356
[2.0000e+00 2.0000e+00 2.0000e+00 2.0000e+00 2.0000e+00 2.0000e+00
 1.9995e+00 1.9989e+00 1.8491e+00 1.3162e-01 2.0055e-02 7.4923e-04]
entropy correction =  -0.005763695302907573
cycle= 8 E= -19.3269329978317  delta_E= -0.000186  |g|= 0.013  |ddm|= 0.137
HOMO:  -0.5816865284072604 LUMO:  -0.5562193890563211
Fermi energy:      -0.5693073498
[2.0000e+00 2.0000e+00 2.0000e+00 2.0000e+00 2.0000e+00 2.0000e+00
 1.9995e+00 1.9989e+00 1.8449e+00 1.3603e-01 2.0039e-02 7.1682e-04]
entropy correction =  -0.005877438760071184
cycle= 9 E= -19.3270444842234  delta_E= -0.000111  |g|= 0.00431  |ddm|= 0.0557
HOMO:  -0.5816772821218318 LUMO:  -0.5560718032096786
Fermi energy:      -0.5692330282
[2.0000e+00 2.0000e+00 2.0000e+00 2.0000e+00 2.0000e+00 2.0000e+00
 1.9995e+00 1.9989e+00 1.8467e+00 1.3418e-01 1.9971e-02 7.4739e-04]
entropy correction =  -0.005828653912274821
cycle= 10 E= -19.3270539513767  delta_E= -9.47e-06  |g|= 0.000842  |ddm|= 0.0168
HOMO:  -0.5816538485874018 LUMO:  -0.5560788410174735
Fermi energy:      -0.5692223449
[2.0000e+00 2.0000e+00 2.0000e+00 2.0000e+00 2.0000e+00 2.0000e+00
 1.9995e+00 1.9989e+00 1.8464e+00 1.3463e-01 1.9890e-02 7.4296e-04]
entropy correction =  -0.005836861175343724
cycle= 11 E= -19.3270543731271  delta_E= -4.22e-07  |g|= 0.000225  |ddm|= 0.00377
HOMO:  -0.5816693137032551 LUMO:  -0.5560897271991156
Fermi energy:      -0.5692359963
[2.0000e+00 2.0000e+00 2.0000e+00 2.0000e+00 2.0000e+00 2.0000e+00
 1.9995e+00 1.9989e+00 1.8464e+00 1.3456e-01 1.9909e-02 7.4210e-04]
entropy correction =  -0.005835745799898944
cycle= 12 E= -19.3270543975794  delta_E= -2.45e-08  |g|= 2.39e-05  |ddm|= 0.000738
HOMO:  -0.5816681062084251 LUMO:  -0.5560879154120926
Fermi energy:      -0.5692344886
[2.0000e+00 2.0000e+00 2.0000e+00 2.0000e+00 2.0000e+00 2.0000e+00
 1.9995e+00 1.9989e+00 1.8464e+00 1.3455e-01 1.9908e-02 7.4227e-04]
entropy correction =  -0.005835528321195787
cycle= 13 E= -19.3270543979079  delta_E= -3.29e-10  |g|= 5.8e-06  |ddm|= 0.000118
HOMO:  -0.5816684496483157 LUMO:  -0.5560883468213564
Fermi energy:      -0.5692348797
[2.0000e+00 2.0000e+00 2.0000e+00 2.0000e+00 2.0000e+00 2.0000e+00
 1.9995e+00 1.9989e+00 1.8464e+00 1.3455e-01 1.9909e-02 7.4222e-04]
entropy correction =  -0.005835562000935338
Extra cycle  E= -19.3270543978835  delta_E= 2.44e-11  |g|= 9e-06  |ddm|= 5.58e-05
entropy correction =  -0.005835562000935338
rks_ao.ne_frozen =  0
Set gradient conv threshold to 3.16228e-05
Initial guess from hcore.
HOMO:  -2.7285365487404576 LUMO:  -2.673565717368566
Fermi energy:      -2.7009911645
[2.     2.     2.     2.     2.     2.     2.     1.9998 1.9919 0.0083]
tot grids = 190200
init E= -17.5283391650951
HOMO:  -0.16056231740606114 LUMO:  -0.10047588271566588
Fermi energy:      -0.1314615192
[2.0000e+00 2.0000e+00 2.0000e+00 2.0000e+00 2.0000e+00 2.0000e+00
 2.0000e+00 2.0000e+00 1.9941e+00 4.0623e-03 1.7889e-03]
entropy correction =  -0.00042354883028469293
cycle= 1 E= -18.9145982155377  delta_E= -1.39  |g|= 1.49  |ddm|= 15.2
HOMO:  -0.4810942952990059 LUMO:  -0.43348545325870413
Fermi energy:      -0.4574428091
[2.0000e+00 2.0000e+00 2.0000e+00 2.0000e+00 2.0000e+00 2.0000e+00
 2.0000e+00 1.9996e+00 1.9825e+00 1.6464e-02 1.3880e-03]
entropy correction =  -0.0010573232435261825
cycle= 2 E= -18.3281432159838  delta_E= 0.586  |g|= 1.69  |ddm|=  8.3
HOMO:  -0.40914416644940943 LUMO:  -0.38286138591222707
Fermi energy:      -0.3959890590
[2.0000e+00 2.0000e+00 2.0000e+00 2.0000e+00 2.0000e+00 2.0000e+00
 2.0000e+00 1.9992e+00 1.8657e+00 1.3503e-01 1.0026e-04]
entropy correction =  -0.004976743489813185
cycle= 3 E= -19.5232375810777  delta_E= -1.2  |g|= 0.573  |ddm|=  3.8
HOMO:  -0.3524904595209277 LUMO:  -0.31092733177939685
Fermi energy:      -0.3318372142
[2.0000e+00 2.0000e+00 2.0000e+00 2.0000e+00 2.0000e+00 2.0000e+00
 2.0000e+00 1.9999e+00 1.9684e+00 3.0077e-02 1.6330e-03]
entropy correction =  -0.0016645089815918567
cycle= 4 E= -19.6336740868706  delta_E= -0.11  |g|= 0.296  |ddm|= 2.38
HOMO:  -0.3549667568118748 LUMO:  -0.31070265771603583
Fermi energy:      -0.3330638606
[2.     2.     2.     2.     2.     2.     2.     1.9998 1.9753 0.0226
 0.0023]
entropy correction =  -0.0013880424378270872
cycle= 5 E= -19.6614697693441  delta_E= -0.0278  |g|= 0.153  |ddm|= 0.837
HOMO:  -0.35758882012487037 LUMO:  -0.31201228500897066
Fermi energy:      -0.3350487551
[2.     2.     2.     2.     2.     2.     2.     1.9998 1.9782 0.0198
 0.0023]
entropy correction =  -0.0012562908637675108
cycle= 6 E= -19.6683053920477  delta_E= -0.00684  |g|= 0.076  |ddm|= 0.446
HOMO:  -0.35572233704993694 LUMO:  -0.3115760897284457
Fermi energy:      -0.3338619078
[2.     2.     2.     2.     2.     2.     2.     1.9998 1.9751 0.0229
 0.0022]
entropy correction =  -0.001390453304041959
cycle= 7 E= -19.6699363157429  delta_E= -0.00163  |g|= 0.037  |ddm|= 0.277
HOMO:  -0.3550679744726677 LUMO:  -0.3094001554951748
Fermi energy:      -0.3325347245
[2.     2.     2.     2.     2.     2.     2.     1.9998 1.9782 0.0194
 0.0026]
entropy correction =  -0.001257574027090084
cycle= 8 E= -19.6705676088772  delta_E= -0.000631  |g|= 0.0101  |ddm|= 0.153
HOMO:  -0.3546730983866323 LUMO:  -0.30933789339967266
Fermi energy:      -0.3322756349
[2.     2.     2.     2.     2.     2.     2.     1.9998 1.9776 0.0202
 0.0024]
entropy correction =  -0.0012825713148002546
cycle= 9 E= -19.6706145805571  delta_E= -4.7e-05  |g|= 0.00233  |ddm|= 0.038
HOMO:  -0.35474012192645377 LUMO:  -0.3092897730198923
Fermi energy:      -0.3322885058
[2.     2.     2.     2.     2.     2.     2.     1.9998 1.9778 0.0199
 0.0024]
entropy correction =  -0.0012717580620114997
cycle= 10 E= -19.6706164843779  delta_E= -1.9e-06  |g|= 0.000679  |ddm|= 0.00904
HOMO:  -0.3547381461886561 LUMO:  -0.30931397140833444
Fermi energy:      -0.3322996190
[2.     2.     2.     2.     2.     2.     2.     1.9998 1.9778 0.02
 0.0024]
entropy correction =  -0.0012744245970789977
cycle= 11 E= -19.6706166409939  delta_E= -1.57e-07  |g|= 0.000149  |ddm|= 0.00228
HOMO:  -0.3547328103445407 LUMO:  -0.3093104610968385
Fermi energy:      -0.3322952043
[2.     2.     2.     2.     2.     2.     2.     1.9998 1.9778 0.02
 0.0024]
entropy correction =  -0.001274612957025502
cycle= 12 E= -19.6706166505522  delta_E= -9.56e-09  |g|= 1.85e-05  |ddm|= 0.000518
HOMO:  -0.3547346894975972 LUMO:  -0.3093116379280676
Fermi energy:      -0.3322967670
[2.     2.     2.     2.     2.     2.     2.     1.9998 1.9778 0.02
 0.0024]
entropy correction =  -0.0012745522934788141
cycle= 13 E= -19.6706166507186  delta_E= -1.66e-10  |g|= 6.33e-06  |ddm|= 8.08e-05
HOMO:  -0.35473406283725134 LUMO:  -0.3093113867281951
Fermi energy:      -0.3322963204
[2.     2.     2.     2.     2.     2.     2.     1.9998 1.9778 0.02
 0.0024]
entropy correction =  -0.0012745872835018862
Extra cycle  E= -19.6706166506074  delta_E= 1.11e-10  |g|= 1.76e-05  |ddm|= 5.21e-05
 Adding contributions from fluctuation of occupation numbers.
 Adding contributions from fluctuation of occupation numbers.
entropy correction =  -0.0012745872835018862
2-norm (grad),       max(grad):
84.79531168388147 ,  16.647925767541043
time of hessian construction : 18.310  (cpu),  0.459  (wall) 
time of hessian construction : 17.590  (cpu),  0.441  (wall) 
f =  3595.1224417833023
|umat| =  2.749482757481323
rks_ao.ne_frozen =  0
Set gradient conv threshold to 3.16228e-05
Initial guess from hcore.
HOMO:  -3.508996640657358 LUMO:  -3.368810346999428
Fermi energy:      -3.4381514470
[2. 2. 2. 2. 2. 2. 2. 2. 2.]
tot grids = 190200
init E= -10.2060496773493
HOMO:  -0.07739964796598732 LUMO:  -0.07457212716358098
Fermi energy:      -0.0777051388
[2.     2.     2.     2.     2.     2.     2.     1.8982 0.9695 0.6966
 0.3376 0.0982]
entropy correction =  -0.021901616730937507
cycle= 1 E= -10.3591941190718  delta_E= -0.153  |g|= 2.79  |ddm|= 9.17
HOMO:  -0.7952845531922793 LUMO:  -0.7294573364943725
Fermi energy:      -0.7622745500
[2.     2.     2.     2.     2.     2.     2.     1.9999 1.9973 0.0028]
entropy correction =  -0.000215650774486724
cycle= 2 E= -11.6283120833913  delta_E= -1.27  |g|= 2.03  |ddm|= 7.85
HOMO:  -0.4604304247571578 LUMO:  -0.4541168660581878
Fermi energy:      -0.4569081695
[2.0000e+00 2.0000e+00 2.0000e+00 2.0000e+00 2.0000e+00 1.9945e+00
 1.9924e+00 1.9380e+00 1.3383e+00 7.2790e-01 7.5516e-03 9.2641e-04
 4.0968e-04]
entropy correction =  -0.015035348049905363
cycle= 3 E= -13.2306159768496  delta_E= -1.6  |g|= 0.852  |ddm|=  4.7
HOMO:  -0.41733987688943164 LUMO:  -0.3977311083647229
Fermi energy:      -0.4075042826
[2.     2.     2.     2.     2.     1.9998 1.9995 1.9759 1.7546 0.2481
 0.022 ]
entropy correction =  -0.00876717141417809
cycle= 4 E= -11.8696489660708  delta_E= 1.36  |g|= 1.73  |ddm|= 3.57
HOMO:  -0.4222817400147947 LUMO:  -0.4178656828446684
Fermi energy:      -0.4183984306
[2.0000e+00 2.0000e+00 2.0000e+00 1.9999e+00 1.9999e+00 1.9961e+00
 1.9345e+00 1.6032e+00 1.3699e+00 9.4678e-01 1.4759e-01 1.9401e-03
 1.8858e-04]
entropy correction =  -0.02244439599146883
cycle= 5 E= -13.360402597076  delta_E= -1.49  |g|= 0.697  |ddm|=  2.1
HOMO:  -0.3997066301079254 LUMO:  -0.39639984202302425
Fermi energy:      -0.3966413144
[2.0000e+00 2.0000e+00 1.9999e+00 1.9999e+00 1.9982e+00 1.9680e+00
 1.7459e+00 1.5074e+00 1.2973e+00 9.7586e-01 4.9143e-01 1.4440e-02
 1.7308e-03]
entropy correction =  -0.029777131879554504
cycle= 6 E= -13.4675747752799  delta_E= -0.107  |g|= 0.547  |ddm|= 1.62
HOMO:  -0.3915721423530732 LUMO:  -0.38173007995584146
Fermi energy:      -0.3863472435
[2.0000e+00 2.0000e+00 1.9997e+00 1.9974e+00 1.9973e+00 1.9831e+00
 1.8300e+00 1.6475e+00 1.4796e+00 5.6852e-01 4.9085e-01 4.6847e-03
 1.2793e-03]
entropy correction =  -0.025762833158577154
cycle= 7 E= -13.5301968431892  delta_E= -0.0626  |g|= 0.449  |ddm|= 1.59
HOMO:  -0.38668180694595744 LUMO:  -0.38300876630801856
Fermi energy:      -0.3844197511
[2.0000e+00 2.0000e+00 1.9997e+00 1.9981e+00 1.9931e+00 1.9877e+00
 1.9275e+00 1.6039e+00 1.2224e+00 8.5983e-01 3.8649e-01 1.9520e-02
 1.6804e-03]
entropy correction =  -0.02626946112610646
cycle= 8 E= -13.6022170393528  delta_E= -0.072  |g|= 0.252  |ddm|= 0.946
HOMO:  -0.3865979725478256 LUMO:  -0.38390405618155654
Fermi energy:      -0.3848137809
[2.0000e+00 2.0000e+00 1.9995e+00 1.9975e+00 1.9841e+00 1.9830e+00
 1.8745e+00 1.4619e+00 1.1765e+00 9.0928e-01 5.9889e-01 1.3755e-02
 1.0654e-03]
entropy correction =  -0.02946665669158145
cycle= 9 E= -13.6105977813836  delta_E= -0.00838  |g|= 0.245  |ddm|= 0.702
HOMO:  -0.38229005885486805 LUMO:  -0.37760491214639597
Fermi energy:      -0.3797893401
[2.0000e+00 2.0000e+00 1.9987e+00 1.9952e+00 1.9820e+00 1.9584e+00
 1.8392e+00 1.6409e+00 1.2450e+00 7.8497e-01 5.3786e-01 1.6002e-02
 1.9436e-03]
entropy correction =  -0.028947536020559723
cycle= 10 E= -13.6404331739725  delta_E= -0.0298  |g|= 0.108  |ddm|= 0.609
HOMO:  -0.3800990887692738 LUMO:  -0.3780234098245836
Fermi energy:      -0.3788421824
[2.     2.     1.9986 1.9976 1.9821 1.9745 1.8558 1.5522 1.125  0.9183
 0.5729 0.0207 0.0023]
entropy correction =  -0.02966008042626797
cycle= 11 E= -13.6456081834308  delta_E= -0.00518  |g|= 0.0767  |ddm|= 0.414
HOMO:  -0.3812530732075052 LUMO:  -0.37924230578941953
Fermi energy:      -0.3794900479
[2.     2.     1.9988 1.9965 1.9742 1.9719 1.8535 1.5345 1.1745 0.9752
 0.4989 0.0199 0.002 ]
entropy correction =  -0.029609340344572268
cycle= 12 E= -13.649723870824  delta_E= -0.00412  |g|= 0.0332  |ddm|= 0.241
HOMO:  -0.38100994448453485 LUMO:  -0.3791176942743226
Fermi energy:      -0.3799096878
[2.0000e+00 2.0000e+00 1.9988e+00 1.9964e+00 1.9747e+00 1.9731e+00
 1.8493e+00 1.5951e+00 1.1096e+00 9.2097e-01 5.6221e-01 1.7870e-02
 1.8849e-03]
entropy correction =  -0.02957941909217298
cycle= 13 E= -13.6506373019634  delta_E= -0.000913  |g|= 0.0163  |ddm|= 0.133
HOMO:  -0.3812363638250113 LUMO:  -0.3794044107884752
Fermi energy:      -0.3799215896
[2.0000e+00 2.0000e+00 1.9987e+00 1.9967e+00 1.9778e+00 1.9701e+00
 1.8450e+00 1.5507e+00 1.1307e+00 9.4833e-01 5.6156e-01 1.8416e-02
 1.9471e-03]
entropy correction =  -0.029917883206136708
cycle= 14 E= -13.6507851776302  delta_E= -0.000148  |g|= 0.0114  |ddm|= 0.07
HOMO:  -0.3813405960985084 LUMO:  -0.3794494381403471
Fermi energy:      -0.3800154186
[2.0000e+00 2.0000e+00 1.9987e+00 1.9966e+00 1.9765e+00 1.9723e+00
 1.8447e+00 1.5597e+00 1.1317e+00 9.4346e-01 5.5584e-01 1.8527e-02
 1.9774e-03]
entropy correction =  -0.029824369315038717
cycle= 15 E= -13.6508859259804  delta_E= -0.000101  |g|= 0.00426  |ddm|= 0.0304
HOMO:  -0.38122272087017794 LUMO:  -0.3793232993598522
Fermi energy:      -0.3799077392
[2.0000e+00 2.0000e+00 1.9987e+00 1.9966e+00 1.9759e+00 1.9719e+00
 1.8447e+00 1.5655e+00 1.1307e+00 9.4162e-01 5.5368e-01 1.8706e-02
 1.9606e-03]
entropy correction =  -0.029802112383218705
cycle= 16 E= -13.6508949284637  delta_E= -9e-06  |g|= 0.00242  |ddm|= 0.0107
HOMO:  -0.38118951289447617 LUMO:  -0.37925243490829447
Fermi energy:      -0.3798593650
[2.0000e+00 2.0000e+00 1.9987e+00 1.9965e+00 1.9761e+00 1.9717e+00
 1.8455e+00 1.5652e+00 1.1322e+00 9.3938e-01 5.5415e-01 1.8548e-02
 1.9617e-03]
entropy correction =  -0.029790218554159722
cycle= 17 E= -13.6508975818347  delta_E= -2.65e-06  |g|= 0.0015  |ddm|= 0.00631
HOMO:  -0.3812180963926213 LUMO:  -0.37930465049417633
Fermi energy:      -0.3798958693
[2.0000e+00 2.0000e+00 1.9987e+00 1.9966e+00 1.9762e+00 1.9717e+00
 1.8458e+00 1.5640e+00 1.1315e+00 9.4095e-01 5.5409e-01 1.8562e-02
 1.9589e-03]
entropy correction =  -0.02979301626596115
cycle= 18 E= -13.6508990380492  delta_E= -1.46e-06  |g|= 0.000305  |ddm|= 0.0034
HOMO:  -0.3812442235892145 LUMO:  -0.3793332088019605
Fermi energy:      -0.3799227792
[2.0000e+00 2.0000e+00 1.9987e+00 1.9966e+00 1.9762e+00 1.9719e+00
 1.8455e+00 1.5639e+00 1.1314e+00 9.4111e-01 5.5422e-01 1.8568e-02
 1.9591e-03]
entropy correction =  -0.02979436537106597
cycle= 19 E= -13.6508989648635  delta_E= 7.32e-08  |g|= 0.000477  |ddm|= 0.0015
HOMO:  -0.38122442362057524 LUMO:  -0.37931667770972155
Fermi energy:      -0.3799050325
[2.0000e+00 2.0000e+00 1.9987e+00 1.9966e+00 1.9762e+00 1.9718e+00
 1.8456e+00 1.5640e+00 1.1312e+00 9.4123e-01 5.5420e-01 1.8581e-02
 1.9594e-03]
entropy correction =  -0.029794926539619432
cycle= 20 E= -13.650899085004  delta_E= -1.2e-07  |g|= 0.000193  |ddm|= 0.00105
HOMO:  -0.38122997737010955 LUMO:  -0.3793205288900367
Fermi energy:      -0.3799088860
[2.0000e+00 2.0000e+00 1.9987e+00 1.9966e+00 1.9761e+00 1.9718e+00
 1.8456e+00 1.5639e+00 1.1313e+00 9.4123e-01 5.5412e-01 1.8570e-02
 1.9580e-03]
entropy correction =  -0.029795393348453193
cycle= 21 E= -13.6508990879808  delta_E= -2.98e-09  |g|= 0.000214  |ddm|= 0.000794
HOMO:  -0.3812266408707774 LUMO:  -0.37931576154376073
Fermi energy:      -0.3799065677
[2.0000e+00 2.0000e+00 1.9987e+00 1.9966e+00 1.9762e+00 1.9718e+00
 1.8456e+00 1.5641e+00 1.1312e+00 9.4099e-01 5.5430e-01 1.8569e-02
 1.9587e-03]
entropy correction =  -0.029795198124710175
cycle= 22 E= -13.6508991189309  delta_E= -3.1e-08  |g|= 7.1e-05  |ddm|= 0.000534
HOMO:  -0.3812265664216887 LUMO:  -0.3793155464961488
Fermi energy:      -0.3799049299
[2.0000e+00 2.0000e+00 1.9987e+00 1.9966e+00 1.9762e+00 1.9718e+00
 1.8456e+00 1.5639e+00 1.1314e+00 9.4113e-01 5.5424e-01 1.8573e-02
 1.9593e-03]
entropy correction =  -0.02979650854360982
cycle= 23 E= -13.6508991174924  delta_E= 1.44e-09  |g|= 7.98e-05  |ddm|= 0.000347
HOMO:  -0.3812275930548203 LUMO:  -0.3793163694165553
Fermi energy:      -0.3799061943
[2.0000e+00 2.0000e+00 1.9987e+00 1.9966e+00 1.9762e+00 1.9718e+00
 1.8456e+00 1.5640e+00 1.1314e+00 9.4109e-01 5.5421e-01 1.8573e-02
 1.9595e-03]
entropy correction =  -0.029795619550701567
cycle= 24 E= -13.6508991195306  delta_E= -2.04e-09  |g|= 7.71e-05  |ddm|= 0.000278
HOMO:  -0.3812253099934408 LUMO:  -0.37931360895485006
Fermi energy:      -0.3799039186
[2.0000e+00 2.0000e+00 1.9987e+00 1.9966e+00 1.9761e+00 1.9718e+00
 1.8456e+00 1.5641e+00 1.1314e+00 9.4104e-01 5.5415e-01 1.8575e-02
 1.9592e-03]
entropy correction =  -0.029794856836522055
cycle= 25 E= -13.650899120494  delta_E= -9.63e-10  |g|= 6.33e-05  |ddm|= 0.000209
HOMO:  -0.38122583392410153 LUMO:  -0.37931398887419365
Fermi energy:      -0.3799044697
[2.0000e+00 2.0000e+00 1.9987e+00 1.9966e+00 1.9762e+00 1.9718e+00
 1.8456e+00 1.5641e+00 1.1314e+00 9.4102e-01 5.5420e-01 1.8570e-02
 1.9592e-03]
entropy correction =  -0.029794930123827876
cycle= 26 E= -13.6508991222211  delta_E= -1.73e-09  |g|= 4.64e-05  |ddm|= 0.000158
HOMO:  -0.38122666734540883 LUMO:  -0.3793154782362698
Fermi energy:      -0.3799054892
[2.0000e+00 2.0000e+00 1.9987e+00 1.9966e+00 1.9762e+00 1.9718e+00
 1.8456e+00 1.5640e+00 1.1314e+00 9.4107e-01 5.5420e-01 1.8571e-02
 1.9591e-03]
entropy correction =  -0.029795203282173638
cycle= 27 E= -13.6508991235143  delta_E= -1.29e-09  |g|= 1.13e-05  |ddm|= 9.54e-05
HOMO:  -0.3812268290608133 LUMO:  -0.3793155981092156
Fermi energy:      -0.3799056489
[2.0000e+00 2.0000e+00 1.9987e+00 1.9966e+00 1.9762e+00 1.9718e+00
 1.8456e+00 1.5640e+00 1.1314e+00 9.4106e-01 5.5421e-01 1.8572e-02
 1.9591e-03]
entropy correction =  -0.029795294369504982
cycle= 28 E= -13.6508991236151  delta_E= -1.01e-10  |g|= 5.2e-06  |ddm|= 4.06e-05
HOMO:  -0.3812261683428793 LUMO:  -0.37931506686176014
Fermi energy:      -0.3799050921
[2.0000e+00 2.0000e+00 1.9987e+00 1.9966e+00 1.9762e+00 1.9718e+00
 1.8456e+00 1.5640e+00 1.1313e+00 9.4107e-01 5.5422e-01 1.8572e-02
 1.9592e-03]
entropy correction =  -0.029795389402311363
Extra cycle  E= -13.6508991226526  delta_E= 9.62e-10  |g|= 3.74e-05  |ddm|= 7.37e-05
entropy correction =  -0.029795389402311363
rks_ao.ne_frozen =  0
Set gradient conv threshold to 3.16228e-05
Initial guess from hcore.
HOMO:  -2.611627368841018 LUMO:  -2.5551393197567065
Fermi energy:      -2.5847849575
[2.0000e+00 2.0000e+00 2.0000e+00 2.0000e+00 2.0000e+00 2.0000e+00
 2.0000e+00 2.0000e+00 1.9907e+00 5.3075e-03 2.1786e-03 9.8079e-04
 7.5606e-04]
tot grids = 190200
init E= -10.0262423323689
HOMO:  -0.0027268603310007136 LUMO:  0.012250660835082233
Fermi energy:       0.0033400263
[2.0000e+00 2.0000e+00 2.0000e+00 2.0000e+00 2.0000e+00 2.0000e+00
 2.0000e+00 1.9993e+00 1.5418e+00 2.8808e-01 1.2831e-01 3.9107e-02
 2.0613e-03 9.0107e-04 3.8141e-04]
entropy correction =  -0.013027126939155894
cycle= 1 E= -11.4540112225551  delta_E= -1.43  |g|= 2.03  |ddm|=   10
HOMO:  -0.46721628454966135 LUMO:  -0.4182902252309748
Fermi energy:      -0.4429803979
[2.     2.     2.     2.     2.     1.9999 1.9994 1.9987 1.9844 0.0142
 0.0033]
entropy correction =  -0.0010893993141828193
cycle= 2 E= -8.61945227478645  delta_E= 2.83  |g|= 2.72  |ddm|= 9.43
HOMO:  -0.375570307660159 LUMO:  -0.3583081569839483
Fermi energy:      -0.3672592889
[2.0000e+00 2.0000e+00 2.0000e+00 2.0000e+00 2.0000e+00 2.0000e+00
 2.0000e+00 2.0000e+00 1.6811e+00 2.8609e-01 2.0565e-02 1.1291e-02
 7.5423e-04 2.5046e-04]
entropy correction =  -0.00946610366777573
cycle= 3 E= -11.7733493074751  delta_E= -3.15  |g|= 1.71  |ddm|= 2.38
HOMO:  -0.287036250594325 LUMO:  -0.27348668162481715
Fermi energy:      -0.2791316659
[2.0000e+00 2.0000e+00 2.0000e+00 2.0000e+00 2.0000e+00 2.0000e+00
 1.9548e+00 1.8260e+00 1.6587e+00 4.8869e-01 6.8057e-02 2.5804e-03
 6.4501e-04 5.7422e-04]
entropy correction =  -0.01580852736033758
cycle= 4 E= -12.0298069869615  delta_E= -0.256  |g|= 1.26  |ddm|= 1.95
HOMO:  -0.2869477452666647 LUMO:  -0.2741283291602184
Fermi energy:      -0.2796104634
[2.0000e+00 2.0000e+00 2.0000e+00 2.0000e+00 2.0000e+00 2.0000e+00
 1.9566e+00 1.8362e+00 1.6253e+00 5.0082e-01 7.6347e-02 3.1308e-03
 9.1450e-04 5.8181e-04]
entropy correction =  -0.0161382097166769
cycle= 5 E= -12.1325761500383  delta_E= -0.103  |g|=  1.2  |ddm|= 0.185
HOMO:  -0.28805513420382295 LUMO:  -0.27448792332508265
Fermi energy:      -0.2801681713
[2.0000e+00 2.0000e+00 2.0000e+00 2.0000e+00 2.0000e+00 2.0000e+00
 1.9556e+00 1.8215e+00 1.6577e+00 4.8609e-01 7.4698e-02 3.0475e-03
 7.1062e-04 6.5055e-04]
entropy correction =  -0.015968935937185857
cycle= 6 E= -12.1279197857821  delta_E= 0.00466  |g|=  1.2  |ddm|= 0.235
HOMO:  -0.27280837552204357 LUMO:  -0.2642289117036617
Fermi energy:      -0.2670425725
[2.0000e+00 2.0000e+00 2.0000e+00 2.0000e+00 2.0000e+00 2.0000e+00
 1.9335e+00 1.7671e+00 1.5202e+00 7.2583e-01 4.1927e-02 8.7477e-03
 1.4971e-03 1.1979e-03]
entropy correction =  -0.018531804020525292
cycle= 7 E= -12.3641177853275  delta_E= -0.236  |g|= 1.04  |ddm|= 1.17
HOMO:  -0.24946189584626446 LUMO:  -0.24838219857539556
Fermi energy:      -0.2485910109
[2.0000e+00 2.0000e+00 2.0000e+00 2.0000e+00 2.0000e+00 2.0000e+00
 1.7641e+00 1.5323e+00 1.0869e+00 9.7912e-01 5.6128e-01 6.8678e-02
 6.2793e-03 1.3823e-03]
entropy correction =  -0.03059370065557468
cycle= 8 E= -12.9660339044415  delta_E= -0.602  |g|= 0.469  |ddm|= 1.64
HOMO:  -0.23929074831573696 LUMO:  -0.23071873295397977
Fermi energy:      -0.2349134523
[2.0000e+00 2.0000e+00 2.0000e+00 2.0000e+00 2.0000e+00 2.0000e+00
 1.9948e+00 1.8317e+00 1.4118e+00 6.0351e-01 1.2433e-01 2.7888e-02
 4.4873e-03 1.4771e-03]
entropy correction =  -0.018536644399595438
cycle= 9 E= -12.7972402162081  delta_E= 0.169  |g|= 0.646  |ddm|= 2.07
[...]
Fermi energy:      -0.3666821528
[2.0000e+00 1.9993e+00 1.9930e+00 1.9914e+00 1.9602e+00 1.9592e+00
 1.9456e+00 1.0430e+00 1.0353e+00 8.3777e-01 5.7496e-01 5.7123e-01
 8.8792e-02 2.3230e-04]
entropy correction =  -0.03821596469325358
cycle= 9 E= -13.3955062578546  delta_E= -0.000336  |g|= 0.0175  |ddm|= 0.0583
HOMO:  -0.36593886262880865 LUMO:  -0.36447046528486654
Fermi energy:      -0.3658557819
[2.0000e+00 1.9993e+00 1.9920e+00 1.9906e+00 1.9613e+00 1.9597e+00
 1.9440e+00 1.0129e+00 1.0083e+00 8.6235e-01 5.9068e-01 5.8759e-01
 9.1034e-02 2.3128e-04]
entropy correction =  -0.038493807428741804
cycle= 10 E= -13.3955974539066  delta_E= -9.12e-05  |g|= 0.0151  |ddm|= 0.05
HOMO:  -0.3656634152792394 LUMO:  -0.36435309153882744
Fermi energy:      -0.3656583134
[2.0000e+00 1.9993e+00 1.9918e+00 1.9904e+00 1.9617e+00 1.9599e+00
 1.9438e+00 1.0038e+00 1.0005e+00 8.7021e-01 5.9534e-01 5.9100e-01
 9.2041e-02 2.3076e-04]
entropy correction =  -0.038559966005430234
cycle= 11 E= -13.3957416706242  delta_E= -0.000144  |g|= 0.00468  |ddm|= 0.03
HOMO:  -0.36532261489173246 LUMO:  -0.36418101700067207
Fermi energy:      -0.3654554288
[2.0000e+00 1.9993e+00 1.9920e+00 1.9899e+00 1.9618e+00 1.9605e+00
 1.9438e+00 1.0083e+00 9.8672e-01 8.7324e-01 6.0097e-01 5.9071e-01
 9.2610e-02 2.3152e-04]
entropy correction =  -0.038589352102444574
cycle= 12 E= -13.3957167284186  delta_E= 2.49e-05  |g|= 0.00573  |ddm|= 0.0262
HOMO:  -0.36562570158077934 LUMO:  -0.3642924412752899
Fermi energy:      -0.3656074235
[2.0000e+00 1.9993e+00 1.9920e+00 1.9904e+00 1.9617e+00 1.9601e+00
 1.9440e+00 1.0034e+00 1.0018e+00 8.6925e-01 5.9547e-01 5.9024e-01
 9.2276e-02 2.3178e-04]
entropy correction =  -0.03854971779545325
cycle= 13 E= -13.3957591339971  delta_E= -4.24e-05  |g|= 0.000698  |ddm|= 0.019
HOMO:  -0.36562397705086513 LUMO:  -0.36429372810383076
Fermi energy:      -0.3656116299
[2.0000e+00 1.9993e+00 1.9920e+00 1.9904e+00 1.9616e+00 1.9601e+00
 1.9441e+00 1.0042e+00 1.0012e+00 8.6897e-01 5.9577e-01 5.8988e-01
 9.2244e-02 2.3167e-04]
entropy correction =  -0.038546062393940164
cycle= 14 E= -13.3957571978043  delta_E= 1.94e-06  |g|= 0.00184  |ddm|= 0.00405
HOMO:  -0.36560604522522616 LUMO:  -0.36428192936726517
Fermi energy:      -0.3655967668
[2.0000e+00 1.9993e+00 1.9920e+00 1.9903e+00 1.9616e+00 1.9602e+00
 1.9441e+00 1.0035e+00 1.0009e+00 8.6927e-01 5.9591e-01 5.9036e-01
 9.2269e-02 2.3160e-04]
entropy correction =  -0.038548928311306935
cycle= 15 E= -13.3957592541812  delta_E= -2.06e-06  |g|= 0.000673  |ddm|= 0.00344
HOMO:  -0.36564511293391716 LUMO:  -0.36430602725432687
Fermi energy:      -0.3656267172
[2.0000e+00 1.9993e+00 1.9920e+00 1.9904e+00 1.9616e+00 1.9601e+00
 1.9440e+00 1.0044e+00 1.0018e+00 8.6869e-01 5.9541e-01 5.8987e-01
 9.2209e-02 2.3181e-04]
entropy correction =  -0.03854491491383459
cycle= 16 E= -13.3957596545109  delta_E= -4e-07  |g|= 7.02e-05  |ddm|= 0.0017
HOMO:  -0.36565453201227144 LUMO:  -0.36431048225268814
Fermi energy:      -0.3656339278
[2.0000e+00 1.9993e+00 1.9920e+00 1.9904e+00 1.9616e+00 1.9601e+00
 1.9441e+00 1.0046e+00 1.0021e+00 8.6842e-01 5.9530e-01 5.8976e-01
 9.2179e-02 2.3178e-04]
entropy correction =  -0.03854212671499548
cycle= 17 E= -13.3957595960651  delta_E= 5.84e-08  |g|= 0.000306  |ddm|= 0.000707
HOMO:  -0.36565337088167665 LUMO:  -0.3643096175771545
Fermi energy:      -0.3656329609
[2.0000e+00 1.9993e+00 1.9920e+00 1.9904e+00 1.9616e+00 1.9601e+00
 1.9441e+00 1.0046e+00 1.0020e+00 8.6843e-01 5.9535e-01 5.8978e-01
 9.2177e-02 2.3180e-04]
entropy correction =  -0.03854262369714674
cycle= 18 E= -13.3957596463981  delta_E= -5.03e-08  |g|= 0.000124  |ddm|= 0.000669
HOMO:  -0.3656552942314424 LUMO:  -0.3643109656090172
Fermi energy:      -0.3656341512
[2.0000e+00 1.9993e+00 1.9920e+00 1.9904e+00 1.9616e+00 1.9601e+00
 1.9441e+00 1.0046e+00 1.0021e+00 8.6845e-01 5.9523e-01 5.8982e-01
 9.2182e-02 2.3181e-04]
entropy correction =  -0.03854262163918751
cycle= 19 E= -13.3957596127993  delta_E= 3.36e-08  |g|= 0.000235  |ddm|= 0.000716
HOMO:  -0.3656530229409323 LUMO:  -0.36430943460105
Fermi energy:      -0.3656322086
[2.0000e+00 1.9993e+00 1.9920e+00 1.9904e+00 1.9616e+00 1.9601e+00
 1.9441e+00 1.0045e+00 1.0021e+00 8.6849e-01 5.9529e-01 5.8984e-01
 9.2185e-02 2.3180e-04]
entropy correction =  -0.0385430916369132
cycle= 20 E= -13.3957596191519  delta_E= -6.35e-09  |g|= 0.000239  |ddm|= 0.0006
HOMO:  -0.3656517061539345 LUMO:  -0.3643087517243316
Fermi energy:      -0.3656313167
[2.0000e+00 1.9993e+00 1.9920e+00 1.9904e+00 1.9616e+00 1.9601e+00
 1.9441e+00 1.0045e+00 1.0020e+00 8.6851e-01 5.9533e-01 5.8983e-01
 9.2187e-02 2.3181e-04]
entropy correction =  -0.038543349309766224
cycle= 21 E= -13.3957596604147  delta_E= -4.13e-08  |g|= 1.91e-05  |ddm|= 0.00042
HOMO:  -0.3656505001634139 LUMO:  -0.3643081396706845
Fermi energy:      -0.3656305318
[2.0000e+00 1.9993e+00 1.9920e+00 1.9904e+00 1.9616e+00 1.9601e+00
 1.9441e+00 1.0045e+00 1.0020e+00 8.6853e-01 5.9535e-01 5.8984e-01
 9.2188e-02 2.3181e-04]
entropy correction =  -0.03854354765359738
cycle= 22 E= -13.3957596606421  delta_E= -2.27e-10  |g|= 1.48e-05  |ddm|= 8.19e-05
HOMO:  -0.3656507929762689 LUMO:  -0.3643088449886521
Fermi energy:      -0.3656313119
[2.0000e+00 1.9993e+00 1.9920e+00 1.9904e+00 1.9616e+00 1.9601e+00
 1.9441e+00 1.0046e+00 1.0019e+00 8.6852e-01 5.9536e-01 5.8979e-01
 9.2189e-02 2.3181e-04]
entropy correction =  -0.038543401258643466
Extra cycle  E= -13.3957596530091  delta_E= 7.63e-09  |g|= 8.64e-05  |ddm|= 0.000279
entropy correction =  -0.038543401258643466
rks_ao.ne_frozen =  0
Set gradient conv threshold to 3.16228e-05
tot grids = 190200
init E= -9.12004941375307
HOMO:  -0.1808533727062466 LUMO:  -0.17010678575843113
Fermi energy:      -0.1739597549
[2.0000e+00 2.0000e+00 2.0000e+00 2.0000e+00 1.9140e+00 1.8493e+00
 1.8471e+00 1.5979e+00 1.5976e+00 6.3270e-01 4.1426e-01 6.2440e-02
 6.1637e-02 1.1304e-02 1.1193e-02 5.8822e-04]
entropy correction =  -0.03201564434658494
cycle= 1 E= -12.4357102620211  delta_E= -3.32  |g|= 0.772  |ddm|= 5.23
HOMO:  -0.1329558117489889 LUMO:  -0.13002900611296245
Fermi energy:      -0.1290802070
[2.0000e+00 2.0000e+00 2.0000e+00 2.0000e+00 2.0000e+00 2.0000e+00
 1.9812e+00 1.3948e+00 1.3693e+00 1.0946e+00 5.4958e-02 4.9276e-02
 3.3897e-02 1.0223e-02 9.4758e-03 9.9958e-04 5.9572e-04 5.1656e-04
 2.8282e-04]
entropy correction =  -0.023787850655268117
cycle= 2 E= -12.3648051875289  delta_E= 0.0709  |g|= 0.978  |ddm|= 2.88
HOMO:  -0.21616873787989746 LUMO:  -0.20802175979204837
Fermi energy:      -0.2129861008
[2.0000e+00 2.0000e+00 2.0000e+00 2.0000e+00 1.9897e+00 1.9894e+00
 1.9674e+00 1.3141e+00 1.3079e+00 5.4069e-01 3.8714e-01 3.8182e-01
 8.6408e-02 1.7670e-02 1.6997e-02 6.3202e-04]
entropy correction =  -0.032792745875035875
cycle= 3 E= -12.7403356895057  delta_E= -0.376  |g|= 0.235  |ddm|= 1.35
HOMO:  -0.21754595042066951 LUMO:  -0.21279433217945537
Fermi energy:      -0.2152941320
[2.0000e+00 2.0000e+00 2.0000e+00 2.0000e+00 1.9308e+00 1.8301e+00
 1.8087e+00 1.2256e+00 1.2215e+00 7.5510e-01 7.4538e-01 3.6514e-01
 8.3695e-02 1.6826e-02 1.6737e-02 4.8771e-04]
entropy correction =  -0.041639054026292074
cycle= 4 E= -12.7634343560769  delta_E= -0.0231  |g|= 0.0967  |ddm|= 0.56
HOMO:  -0.2176184495873348 LUMO:  -0.21293952462896068
Fermi energy:      -0.2152870051
[2.0000e+00 2.0000e+00 2.0000e+00 2.0000e+00 1.9347e+00 1.8067e+00
 1.8023e+00 1.2360e+00 1.2290e+00 7.6947e-01 7.2723e-01 3.8141e-01
 8.1079e-02 1.5962e-02 1.5630e-02 4.7341e-04]
entropy correction =  -0.04188878158814305
cycle= 5 E= -12.7537618559239  delta_E= 0.00967  |g|= 0.15  |ddm|= 0.358
HOMO:  -0.2171944685190467 LUMO:  -0.2125324283328718
Fermi energy:      -0.2149518044
[2.0000e+00 2.0000e+00 2.0000e+00 2.0000e+00 1.9337e+00 1.8184e+00
 1.8005e+00 1.2227e+00 1.2206e+00 7.6267e-01 7.4042e-01 3.8931e-01
 7.7014e-02 1.7267e-02 1.6953e-02 4.5791e-04]
entropy correction =  -0.041917139783419474
cycle= 6 E= -12.7707681117001  delta_E= -0.017  |g|= 0.0144  |ddm|= 0.243
HOMO:  -0.21699749715226704 LUMO:  -0.2122416922326114
Fermi energy:      -0.2146519447
[2.0000e+00 2.0000e+00 2.0000e+00 2.0000e+00 1.9317e+00 1.8272e+00
 1.7834e+00 1.2349e+00 1.2303e+00 7.6354e-01 7.3380e-01 3.8234e-01
 7.7193e-02 1.7830e-02 1.7269e-02 4.7999e-04]
entropy correction =  -0.041940198612174816
cycle= 7 E= -12.7706399003145  delta_E= 0.000128  |g|= 0.0227  |ddm|= 0.0847
HOMO:  -0.21705193214463844 LUMO:  -0.21219883920070814
Fermi energy:      -0.2147181849
[2.0000e+00 2.0000e+00 2.0000e+00 2.0000e+00 1.9314e+00 1.8127e+00
 1.7981e+00 1.2365e+00 1.2292e+00 7.5326e-01 7.4505e-01 3.8111e-01
 7.7129e-02 1.8043e-02 1.7028e-02 4.8042e-04]
entropy correction =  -0.04194810756866785
cycle= 8 E= -12.7709843138504  delta_E= -0.000344  |g|= 0.00927  |ddm|= 0.0695
HOMO:  -0.21724714499196604 LUMO:  -0.21242096133241148
Fermi energy:      -0.2148932146
[2.0000e+00 2.0000e+00 2.0000e+00 2.0000e+00 1.9316e+00 1.8061e+00
 1.8020e+00 1.2327e+00 1.2311e+00 7.5769e-01 7.4695e-01 3.7963e-01
 7.6872e-02 1.7644e-02 1.7288e-02 4.7608e-04]
entropy correction =  -0.04197941094811242
cycle= 9 E= -12.7710455773089  delta_E= -6.13e-05  |g|= 0.00323  |ddm|= 0.02
HOMO:  -0.21728917441531584 LUMO:  -0.2124482836263219
Fermi energy:      -0.2149467600
[2.0000e+00 2.0000e+00 2.0000e+00 2.0000e+00 1.9316e+00 1.8041e+00
 1.8022e+00 1.2332e+00 1.2300e+00 7.5522e-01 7.5222e-01 3.7919e-01
 7.6750e-02 1.7713e-02 1.7173e-02 4.7425e-04]
entropy correction =  -0.042000219222829635
cycle= 10 E= -12.7710521189784  delta_E= -6.54e-06  |g|= 0.00226  |ddm|= 0.011
HOMO:  -0.21727839194341303 LUMO:  -0.2124398266974747
Fermi energy:      -0.2149398952
[2.0000e+00 2.0000e+00 2.0000e+00 2.0000e+00 1.9316e+00 1.8038e+00
 1.8026e+00 1.2334e+00 1.2297e+00 7.5507e-01 7.5264e-01 3.7916e-01
 7.6743e-02 1.7738e-02 1.7141e-02 4.7420e-04]
entropy correction =  -0.04200099198143185
cycle= 11 E= -12.771055198331  delta_E= -3.08e-06  |g|= 0.000887  |ddm|= 0.00541
HOMO:  -0.21725536183930227 LUMO:  -0.21241158904511656
Fermi energy:      -0.2149149538
[2.0000e+00 2.0000e+00 2.0000e+00 2.0000e+00 1.9316e+00 1.8040e+00
 1.8029e+00 1.2334e+00 1.2299e+00 7.5477e-01 7.5208e-01 3.7933e-01
 7.6731e-02 1.7735e-02 1.7152e-02 4.7450e-04]
entropy correction =  -0.04199383873726858
cycle= 12 E= -12.7710539998775  delta_E= 1.2e-06  |g|= 0.00154  |ddm|= 0.00297
HOMO:  -0.21724754340182426 LUMO:  -0.2124014596444858
Fermi energy:      -0.2149062404
[2.0000e+00 2.0000e+00 2.0000e+00 2.0000e+00 1.9316e+00 1.8043e+00
 1.8030e+00 1.2333e+00 1.2299e+00 7.5463e-01 7.5178e-01 3.7935e-01
 7.6726e-02 1.7724e-02 1.7162e-02 4.7472e-04]
entropy correction =  -0.04198772228361728
cycle= 13 E= -12.7710558067574  delta_E= -1.81e-06  |g|= 6.73e-05  |ddm|= 0.00253
HOMO:  -0.21724639121838227 LUMO:  -0.2123996599984246
Fermi energy:      -0.2149048109
[2.0000e+00 2.0000e+00 2.0000e+00 2.0000e+00 1.9316e+00 1.8042e+00
 1.8030e+00 1.2333e+00 1.2300e+00 7.5460e-01 7.5182e-01 3.7934e-01
 7.6715e-02 1.7724e-02 1.7163e-02 4.7468e-04]
entropy correction =  -0.04198802254663285
cycle= 14 E= -12.7710558070496  delta_E= -2.92e-10  |g|= 5.74e-05  |ddm|= 0.00038
HOMO:  -0.21724767288827548 LUMO:  -0.21240147908205634
Fermi energy:      -0.2149060760
[2.0000e+00 2.0000e+00 2.0000e+00 2.0000e+00 1.9316e+00 1.8042e+00
 1.8030e+00 1.2333e+00 1.2300e+00 7.5465e-01 7.5181e-01 3.7934e-01
 7.6715e-02 1.7724e-02 1.7162e-02 4.7465e-04]
entropy correction =  -0.04198839865771852
cycle= 15 E= -12.7710558105616  delta_E= -3.51e-09  |g|= 2.94e-05  |ddm|= 0.000212
HOMO:  -0.21724836998287983 LUMO:  -0.21240230223161485
Fermi energy:      -0.2149067691
[2.0000e+00 2.0000e+00 2.0000e+00 2.0000e+00 1.9316e+00 1.8042e+00
 1.8030e+00 1.2333e+00 1.2300e+00 7.5466e-01 7.5182e-01 3.7933e-01
 7.6715e-02 1.7724e-02 1.7162e-02 4.7463e-04]
entropy correction =  -0.0419886796241627
cycle= 16 E= -12.7710558102884  delta_E= 2.73e-10  |g|= 3.45e-05  |ddm|= 9.87e-05
HOMO:  -0.21724798553482427 LUMO:  -0.2124016147146328
Fermi energy:      -0.2149063970
[2.0000e+00 2.0000e+00 2.0000e+00 2.0000e+00 1.9316e+00 1.8042e+00
 1.8030e+00 1.2333e+00 1.2300e+00 7.5463e-01 7.5184e-01 3.7933e-01
 7.6715e-02 1.7724e-02 1.7162e-02 4.7465e-04]
entropy correction =  -0.041988442935545135
cycle= 17 E= -12.7710558107151  delta_E= -4.27e-10  |g|= 2.59e-05  |ddm|= 8.66e-05
HOMO:  -0.21724838874459884 LUMO:  -0.2124029183918683
Fermi energy:      -0.2149067810
[2.0000e+00 2.0000e+00 2.0000e+00 2.0000e+00 1.9316e+00 1.8043e+00
 1.8029e+00 1.2333e+00 1.2300e+00 7.5472e-01 7.5177e-01 3.7933e-01
 7.6715e-02 1.7725e-02 1.7161e-02 4.7464e-04]
entropy correction =  -0.04198857261070158
Extra cycle  E= -12.7710557934915  delta_E= 1.72e-08  |g|= 0.000149  |ddm|= 0.000376
entropy correction =  -0.04198857261070158
scf energies:
EA (no vemb contrib.) =  -34.78979696960107
EB (no vemb contrib.) =  -24.947991618936225
W =  -59.639744919510626
P_imp change (scf - non-scf):  0.010539941429232594
P_bath change (scf - non-scf):  0.014343901747806581
|P_frag + P_env - P_ref| =  0.07344723581199843
max element of (P_frag + P_env - P_ref) =  0.004788062453063936
mo orthogonality:
[[-2.7434e-06  3.7249e-05  2.2407e-05  7.2225e-03  1.0938e-05 -2.2414e-04
  -5.5891e-05 -2.3580e-05  3.2464e-05  6.7739e-04 -2.4712e-04  2.1364e-04
   2.9675e-01 -1.0423e-03 -2.2316e-04  5.0335e-01 -1.7310e-04  1.4945e-03
   1.3549e-04]
 [ 8.8368e-06 -9.3855e-06  8.7288e-03 -6.2174e-06 -7.0754e-07  1.0323e-05
  -1.7956e-05 -9.9491e-05 -1.2775e-04 -4.9978e-05 -4.5882e-05 -2.5021e-01
  -6.5661e-05 -8.9738e-05  1.3983e-04 -2.6426e-04 -1.2256e-03 -6.9831e-03
  -6.7195e-03]
 [-5.7368e-04  1.9979e-03  6.8934e-05 -1.5512e-06  4.3406e-05 -6.2410e-05
   1.1525e-04  6.5368e-03  2.2216e-02  2.5937e-06 -5.0487e-05 -1.7429e-03
  -9.9766e-04 -1.5585e-03  2.6155e-03 -4.3644e-04  2.4571e-02  7.2032e-01
  -1.0481e-01]
 [-1.4647e-03 -5.8680e-04 -1.1309e-04  5.1071e-05 -3.8197e-05  8.0109e-05
  -1.2677e-04  1.9371e-02 -7.8938e-03 -8.8566e-05  3.5935e-04  9.9624e-04
   6.9429e-03  2.8545e-03 -4.1888e-03 -3.9025e-03 -1.8488e-02 -8.8954e-02
  -8.1389e-01]
 [ 1.4034e-05 -4.5471e-05 -1.7067e-06 -1.3733e-05  9.4785e-06 -1.7687e-02
  -1.3740e-02  7.2492e-05 -2.1568e-05 -7.2645e-02  2.0950e-04 -8.4636e-05
   7.4107e-03  8.8744e-01  2.7308e-01 -2.4575e-03  1.0807e-03  1.3033e-03
   2.1557e-03]
 [ 3.0094e-05  3.8924e-06  9.5819e-06  2.5126e-05  1.0413e-04 -1.3580e-02
   1.7815e-02  1.0047e-04 -1.2199e-04 -7.5829e-04 -7.2181e-02  5.4179e-04
   2.6009e-03 -2.7297e-01  8.8809e-01 -1.8461e-03 -1.0075e-03 -2.8770e-03
  -3.2925e-03]
 [-6.2618e-05 -5.5597e-05  5.2428e-06  7.9708e-03 -3.1300e-06  2.3920e-04
   1.8165e-04 -9.2854e-05 -5.2001e-05  7.5270e-04  9.2525e-05  3.1262e-04
   8.0281e-01 -6.3502e-03 -5.2255e-03 -4.6480e-01  3.5227e-04  1.2241e-03
   6.9030e-03]
 [ 4.2151e-05 -1.6156e-04 -9.2264e-05  5.2437e-05 -1.4783e-04 -1.9786e-01
   6.8297e-03  1.4537e-04 -5.0362e-05  7.4709e-01  6.1087e-01  1.4356e-04
  -1.6862e-04  4.0208e-02  6.0713e-02 -1.9918e-04 -4.4493e-04 -1.5219e-05
   6.8216e-05]
 [ 6.5275e-05  4.0501e-05  7.5615e-07 -1.7142e-04  1.7948e-04  7.7848e-03
   1.9709e-01  2.6704e-04  2.0209e-04 -6.1081e-01  7.4741e-01  1.1986e-03
   4.2366e-04 -6.0817e-02  3.9459e-02  2.4714e-04  1.6908e-04 -4.0919e-04
   1.1328e-04]
 [ 2.5639e-04  2.5649e-04  5.7243e-02 -7.1079e-05 -4.7742e-06 -3.4280e-06
  -3.1147e-04 -1.7275e-04 -2.8407e-05  6.4861e-04 -9.9271e-04  9.3593e-01
  -5.5059e-04  2.7229e-04 -5.1174e-04 -2.7882e-04 -2.2582e-04 -2.6853e-04
  -9.8128e-04]
 [ 3.3252e-02 -2.9170e-03 -2.0517e-04 -3.1387e-04 -2.2985e-04  2.8085e-04
  -2.8037e-04  9.6954e-01  7.1533e-02  8.6542e-05 -2.5857e-04  1.6033e-04
  -1.0753e-04 -2.0895e-05  4.2553e-06 -6.4540e-05  9.9585e-04 -1.2736e-03
   1.6023e-02]
 [-2.5015e-03 -2.5201e-02  1.3761e-04  2.2139e-04  1.7716e-04 -6.7656e-05
   1.4601e-04 -7.1624e-02  9.7023e-01  1.7579e-04 -1.4254e-04  4.7789e-05
   1.4597e-04  1.3531e-05  1.3299e-05 -8.4194e-06 -8.9841e-04 -6.5554e-03
  -4.8497e-03]
 [ 2.8570e-04  2.5858e-04 -6.6328e-04  7.8314e-01 -1.7927e-04  1.4229e-04
   1.9968e-05  3.5229e-04 -1.5741e-04  7.5391e-05  6.2960e-05  3.2436e-04
   2.4211e-01 -7.7876e-04 -9.0139e-05  3.2986e-01 -2.4030e-04  3.3252e-04
  -7.9094e-05]
 [-2.6365e-03 -2.9898e-04  2.7979e-05  1.9553e-04  9.5808e-01  5.9264e-05
  -6.7581e-04  5.2666e-04 -2.2879e-04  1.5286e-04  8.9894e-05  2.7277e-06
  -2.8468e-06  1.7843e-04 -7.1914e-05 -1.6637e-06 -1.8903e-04 -2.9316e-04
   3.3139e-05]]
|P_imp-P_imp_0| =  0.010539941429232594
max(P_imp-P_imp_0) =  0.0006340645320346214
|P_bath-P_bath_0| =  0.014343901747806581
max(P_bath-P_bath_0) =  0.0006765967177914979
RUNNING THE L-BFGS-B CODE

           * * *

Machine precision = 2.220D-16
 N =         4656     M =           10

At X0         0 variables are exactly at the bounds

At iterate    0    f=   1.415713660052E-03    |proj g|=  1.071785728E-02

At iterate    1    f=   1.407219574444E-03    |proj g|=  3.827484687E-03

At iterate    2    f=   1.405636628865E-03    |proj g|=  4.343572933E-03

At iterate    3    f=   1.404586918820E-03    |proj g|=  6.405156974E-03

At iterate    4    f=   1.402343290393E-03    |proj g|=  5.985500387E-03

At iterate    5    f=   1.401433151436E-03    |proj g|=  6.315057642E-03

At iterate    6    f=   1.399721496383E-03    |proj g|=  6.778565833E-03

At iterate    7    f=   1.397962994757E-03    |proj g|=  4.997464011E-03

At iterate    8    f=   1.394483379234E-03    |proj g|=  3.941071429E-03

At iterate    9    f=   1.392775730654E-03    |proj g|=  5.783998992E-03

At iterate   10    f=   1.391217939620E-03    |proj g|=  4.593692843E-03

At iterate   11    f=   1.388784579401E-03    |proj g|=  5.325326788E-03

At iterate   12    f=   1.387264834631E-03    |proj g|=  3.129824310E-03

At iterate   13    f=   1.385288733268E-03    |proj g|=  3.861669320E-03

At iterate   14    f=   1.382912832486E-03    |proj g|=  4.211251673E-03

At iterate   15    f=   1.380952749651E-03    |proj g|=  4.554503522E-03

At iterate   16    f=   1.379270405095E-03    |proj g|=  3.366630929E-03

At iterate   17    f=   1.377739434145E-03    |proj g|=  5.742882344E-03

At iterate   18    f=   1.376231993576E-03    |proj g|=  4.154766728E-03

At iterate   19    f=   1.375099170758E-03    |proj g|=  5.501151205E-03

At iterate   20    f=   1.373504616509E-03    |proj g|=  4.609239299E-03

At iterate   21    f=   1.371876979459E-03    |proj g|=  4.090171340E-03

At iterate   22    f=   1.369757757853E-03    |proj g|=  3.065109876E-03

At iterate   23    f=   1.368438474869E-03    |proj g|=  3.676632235E-03

At iterate   24    f=   1.367332940864E-03    |proj g|=  2.957823721E-03

At iterate   25    f=   1.366552753238E-03    |proj g|=  2.483559207E-03

At iterate   26    f=   1.365989033365E-03    |proj g|=  2.691157898E-03

At iterate   27    f=   1.365761985499E-03    |proj g|=  3.220081190E-03

At iterate   28    f=   1.365693726021E-03    |proj g|=  2.991663214E-03

At iterate   29    f=   1.365629732470E-03    |proj g|=  3.100669213E-03

At iterate   30    f=   1.365595065338E-03    |proj g|=  2.826117873E-03

At iterate   31    f=   1.365583396200E-03    |proj g|=  2.978689583E-03

At iterate   32    f=   1.365583396200E-03    |proj g|=  2.978689584E-03

           * * *

Tit   = total number of iterations
Tnf   = total number of function evaluations
Tnint = total number of segments explored during Cauchy searches
Skip  = number of BFGS updates skipped
Nact  = number of active bounds at final generalized Cauchy point
Projg = norm of the final projected gradient
F     = final function value

           * * *

   N    Tit     Tnf  Tnint  Skip  Nact     Projg        F
 4656     32     61      1     0     0   2.979D-03   1.366D-03
  F =   1.3655833961996829E-003

CONVERGENCE: REL_REDUCTION_OF_F_<=_FACTR*EPSMCH             

 Cauchy                time 0.000E+00 seconds.
 Subspace minimization time 0.000E+00 seconds.
 Line search           time 0.000E+00 seconds.

 Total User time 0.000E+00 seconds.

