#INFO: **** input file is /tigress/xingz/pydmfet/examples/research/Al12/dmfet/least/Al12.py ****
from pydmfet import locints, sdmfet, oep, tools, dfet_ao, proj_ao
from pydmfet.dfet_ao import dfet
from pydmfet.qcwrap.pyscf_rks_ao import rks_ao
from pyscf import gto, scf,dft, ao2mo,cc
import numpy as np
from pyscf.tools import molden, cubegen
import copy,time
from pydmfet.tools.sym import h_lattice_sym_tab

bas = 'stuttgartdz'
ecp = 'stuttgartdz'
temp = 0.005


mol = gto.Mole()
mol.atom = open('Al12.xyz').read()
mol.basis = bas
mol.ecp = ecp
mol.build(max_memory = 4000, verbose=4)

mf = rks_ao(mol,smear_sigma = temp)
mf.xc = 'pbe,pbe'
mf.max_cycle = 50
mf.scf(dm0=None)

natoms = mol.natm
impAtom = np.zeros([natoms], dtype=int)
for i in range(6):
    impAtom[i] = 1

ghost_frag = 1-impAtom
ghost_env = 1-ghost_frag

mol_frag = gto.Mole()
mol_frag.atom = tools.add_ghost(mol.atom, ghost_frag)
mol_frag.basis = bas
mol_frag.ecp = ecp
mol_frag.build(max_memory = 4000,verbose = 4)

mol_env = gto.Mole()
mol_env.atom = tools.add_ghost(mol.atom, ghost_env)
mol_env.basis =  bas
mol_env.ecp = ecp
mol_env.build(max_memory = 4000,verbose = 4)

Ne_frag = 18
Ne_env = 18

boundary_atoms = None
boundary_atoms2 =None

umat = None
umat = np.load("umat.npy")

params = oep.OEPparams(algorithm = 'leastsq', opt_method = 'L-BFGS-B', diffP_tol=1e-3, outer_maxit = 10)
params.options['ftol'] = 1e-10
params.options['gtol'] = 1e-4
params.options['maxiter'] = 100
params.options['svd_thresh'] = 1e-5

theDMFET = dfet.DFET(mf, mol_frag, mol_env,Ne_frag,Ne_env,\
                     boundary_atoms=boundary_atoms, boundary_atoms2=boundary_atoms2,umat = umat,\
                     oep_params=params, smear_sigma=temp, ecw_method = 'hf',mf_method = mf.xc, plot_dens=True)

umat = theDMFET.embedding_potential()
#INFO: ******************** input file end ********************


System: uname_result(system='Linux', node='tiger-h19c2n23', release='3.10.0-957.27.2.el7.x86_64', version='#1 SMP Tue Jul 30 11:12:20 EDT 2019', machine='x86_64', processor='x86_64')  Threads 40
Python 3.7.0 (default, Jun 28 2018, 13:15:42) 
[GCC 7.2.0]
numpy 1.16.4  scipy 1.4.0.dev0+0f78e0f
Date: Tue Aug 20 00:38:39 2019
PySCF version 1.5
PySCF path  /home/xingz/.local/lib/python3.7/site-packages/pyscf

[CONFIG] conf_file None
[INPUT] verbose = 4
[INPUT] num. atoms = 12
[INPUT] num. electrons = 36
[INPUT] charge = 0
[INPUT] spin (= nelec alpha-beta = 2S) = 0
[INPUT] symmetry False subgroup None
[INPUT] Mole.unit = angstrom
[INPUT]  1 Al     8.092960000000   4.046480000000  -0.000000000000 AA   15.293477937060   7.646738968530  -0.000000000000 Bohr
[INPUT]  2 Al     8.092960000000   6.069720000000  -2.023240000000 AA   15.293477937060  11.470108452795  -3.823369484265 Bohr
[INPUT]  3 Al    10.116200000000   4.046480000000  -2.023240000000 AA   19.116847421325   7.646738968530  -3.823369484265 Bohr
[INPUT]  4 Al     6.069720000000   4.046480000000  -2.023240000000 AA   11.470108452795   7.646738968530  -3.823369484265 Bohr
[INPUT]  5 Al     8.092960000000   2.023240000000  -2.023240000000 AA   15.293477937060   3.823369484265  -3.823369484265 Bohr
[INPUT]  6 Al     8.092960000000   4.046480000000  -4.046480000000 AA   15.293477937060   7.646738968530  -7.646738968530 Bohr
[INPUT]  7 Al     6.069720000000   6.069720000000  -0.000000000000 AA   11.470108452795  11.470108452795  -0.000000000000 Bohr
[INPUT]  8 Al    10.116200000000   2.023240000000  -0.000000000000 AA   19.116847421325   3.823369484265  -0.000000000000 Bohr
[INPUT]  9 Al    10.116200000000   6.069720000000  -4.046480000000 AA   19.116847421325  11.470108452795  -7.646738968530 Bohr
[INPUT] 10 Al     6.069720000000   2.023240000000  -0.000000000000 AA   11.470108452795   3.823369484265  -0.000000000000 Bohr
[INPUT] 11 Al     6.069720000000   6.069720000000  -4.046480000000 AA   11.470108452795  11.470108452795  -7.646738968530 Bohr
[INPUT] 12 Al    10.116200000000   2.023240000000  -4.046480000000 AA   19.116847421325   3.823369484265  -7.646738968530 Bohr

nuclear repulsion = 84.8573926838199
number of shells = 48
number of NR pGTOs = 192
number of NR cGTOs = 96
basis = stuttgartdz
ecp = stuttgartdz
CPU time:         2.81
rks_ao.ne_frozen =  0


******** <class 'pydmfet.qcwrap.pyscf_rks_ao.rks_ao'> flags ********
method = rks_ao-RKS-RHF
initial guess = minao
damping factor = 0
level shift factor = 0
DIIS = <class 'pyscf.scf.diis.CDIIS'>
DIIS start cycle = 1
DIIS space = 8
SCF tol = 1e-09
SCF gradient tol = None
max. SCF cycles = 50
direct_scf = False
chkfile to save SCF result = /tmp/tmp0hoo0gup
max_memory 4000 MB (current use 70 MB)
XC functionals = pbe,pbe
small_rho_cutoff = 1e-07
radial grids: 
    Treutler-Ahlrichs (JCP 102, 346 (M4)) radial grids
    
becke partition: Becke, JCP, 88, 2547 (1988)
pruning grids: <function nwchem_prune at 0x2ae2c6ce7400>
grids dens level: 3
symmetrized grids: False
atomic radii adjust function: <function treutler_atomic_radii_adjust at 0x2ae2c6ce7378>
Set gradient conv threshold to 3.16228e-05
tot grids = 220800
init E= -21.344783658299
HOMO:  -0.0964087524766546 LUMO:  -0.08910626015728008
Fermi energy:      -0.0887572500
[2.     2.     2.     2.     2.     2.     2.     2.     2.     2.
 2.     2.     1.9995 1.9096 1.7557 1.7557 1.6441 1.6441 1.0349 0.2163
 0.02   0.02  ]
entropy correction =  -0.030126401120555358
cycle= 1 E= -24.0317931623437  delta_E= -2.69  |g|= 0.653  |ddm|= 6.67
HOMO:  -0.2311626812140622 LUMO:  -0.231162681214061
Fermi energy:      -0.2358858179
[2.     2.     2.     2.     2.     2.     2.     2.     2.     2.
 2.     2.     2.     1.9989 1.9981 1.9981 1.9963 0.5599 0.5599 0.4393
 0.4393 0.0101]
entropy correction =  -0.0230393333829882
cycle= 2 E= -22.7589412389299  delta_E= 1.27  |g|= 1.61  |ddm|= 4.31
HOMO:  -0.18647942894363104 LUMO:  -0.1755152171500862
Fermi energy:      -0.1766937420
[2.     2.     2.     2.     2.     2.     2.     2.     2.     2.
 2.     2.     1.9995 1.9702 1.7766 1.7766 1.7524 1.7524 0.8827 0.0807
 0.0044 0.0044]
entropy correction =  -0.02415297614020332
cycle= 3 E= -24.15778191396  delta_E= -1.4  |g|= 0.177  |ddm|= 3.48
HOMO:  -0.16723309364643507 LUMO:  -0.16668219584287308
Fermi energy:      -0.1626445453
[2.     2.     2.     2.     2.     2.     2.     2.     2.     2.
 2.     2.     1.9999 1.922  1.8341 1.8341 1.4292 1.4292 1.3832 0.1196
 0.0244 0.0244]
entropy correction =  -0.02909238898208646
cycle= 4 E= -24.1758252803635  delta_E= -0.018  |g|= 0.0887  |ddm|= 0.83
HOMO:  -0.16913270192186455 LUMO:  -0.1647659994642625
Fermi energy:      -0.1627185946
[2.     2.     2.     2.     2.     2.     2.     2.     2.     2.
 2.     2.     1.9998 1.9364 1.7964 1.7964 1.5659 1.5659 1.2019 0.1144
 0.0115 0.0115]
entropy correction =  -0.028086976616489102
cycle= 5 E= -24.1831548018886  delta_E= -0.00733  |g|= 0.00917  |ddm|= 0.293
HOMO:  -0.17049749264549693 LUMO:  -0.16611814497689426
Fermi energy:      -0.1641279001
[2.     2.     2.     2.     2.     2.     2.     2.     2.     2.
 2.     2.     1.9999 1.9389 1.802  1.802  1.5628 1.5628 1.1964 0.1103
 0.0124 0.0124]
entropy correction =  -0.027959631237355655
cycle= 6 E= -24.18323430762  delta_E= -7.95e-05  |g|= 0.00113  |ddm|= 0.0422
HOMO:  -0.17058528293729142 LUMO:  -0.16630331880958277
Fermi energy:      -0.1642599608
[2.     2.     2.     2.     2.     2.     2.     2.     2.     2.
 2.     2.     1.9999 1.9387 1.8025 1.8025 1.5598 1.5598 1.2015 0.1105
 0.0124 0.0124]
entropy correction =  -0.02798323806982284
cycle= 7 E= -24.1832355424438  delta_E= -1.23e-06  |g|= 0.000895  |ddm|= 0.00747
HOMO:  -0.1705473183302171 LUMO:  -0.16621690815491577
Fermi energy:      -0.1641961314
[2.     2.     2.     2.     2.     2.     2.     2.     2.     2.
 2.     2.     1.9999 1.9385 1.8018 1.8018 1.5616 1.5616 1.1994 0.1109
 0.0124 0.0124]
entropy correction =  -0.02798901659182568
cycle= 8 E= -24.183236191786  delta_E= -6.49e-07  |g|= 7.71e-05  |ddm|= 0.00356
HOMO:  -0.17053508515530622 LUMO:  -0.16621147282032278
Fermi energy:      -0.1641878969
[2.     2.     2.     2.     2.     2.     2.     2.     2.     2.
 2.     2.     1.9999 1.9385 1.8019 1.8019 1.5613 1.5613 1.1996 0.1108
 0.0124 0.0124]
entropy correction =  -0.02798838449184955
cycle= 9 E= -24.1832362012566  delta_E= -9.47e-09  |g|= 2.11e-05  |ddm|= 0.000544
HOMO:  -0.17053203701342196 LUMO:  -0.16620777273044987
Fermi energy:      -0.1641845192
[2.     2.     2.     2.     2.     2.     2.     2.     2.     2.
 2.     2.     1.9999 1.9385 1.8019 1.8019 1.5613 1.5613 1.1996 0.1108
 0.0124 0.0124]
entropy correction =  -0.027988108712781602
cycle= 10 E= -24.1832362015522  delta_E= -2.96e-10  |g|= 3.03e-06  |ddm|= 6.6e-05
HOMO:  -0.1705331170998086 LUMO:  -0.1662088500125003
Fermi energy:      -0.1641855888
[2.     2.     2.     2.     2.     2.     2.     2.     2.     2.
 2.     2.     1.9999 1.9385 1.8019 1.8019 1.5613 1.5613 1.1996 0.1108
 0.0124 0.0124]
entropy correction =  -0.027988118840462654
Extra cycle  E= -24.1832362015499  delta_E= 2.34e-12  |g|= 3.71e-06  |ddm|= 1.75e-05
converged SCF energy = -24.1832362015499
#INFO: **** input file is /tigress/xingz/pydmfet/examples/research/Al12/dmfet/least/Al12.py ****
from pydmfet import locints, sdmfet, oep, tools, dfet_ao, proj_ao
from pydmfet.dfet_ao import dfet
from pydmfet.qcwrap.pyscf_rks_ao import rks_ao
from pyscf import gto, scf,dft, ao2mo,cc
import numpy as np
from pyscf.tools import molden, cubegen
import copy,time
from pydmfet.tools.sym import h_lattice_sym_tab

bas = 'stuttgartdz'
ecp = 'stuttgartdz'
temp = 0.005


mol = gto.Mole()
mol.atom = open('Al12.xyz').read()
mol.basis = bas
mol.ecp = ecp
mol.build(max_memory = 4000, verbose=4)

mf = rks_ao(mol,smear_sigma = temp)
mf.xc = 'pbe,pbe'
mf.max_cycle = 50
mf.scf(dm0=None)

natoms = mol.natm
impAtom = np.zeros([natoms], dtype=int)
for i in range(6):
    impAtom[i] = 1

ghost_frag = 1-impAtom
ghost_env = 1-ghost_frag

mol_frag = gto.Mole()
mol_frag.atom = tools.add_ghost(mol.atom, ghost_frag)
mol_frag.basis = bas
mol_frag.ecp = ecp
mol_frag.build(max_memory = 4000,verbose = 4)

mol_env = gto.Mole()
mol_env.atom = tools.add_ghost(mol.atom, ghost_env)
mol_env.basis =  bas
mol_env.ecp = ecp
mol_env.build(max_memory = 4000,verbose = 4)

Ne_frag = 18
Ne_env = 18

boundary_atoms = None
boundary_atoms2 =None

umat = None
umat = np.load("umat.npy")

params = oep.OEPparams(algorithm = 'leastsq', opt_method = 'L-BFGS-B', diffP_tol=1e-3, outer_maxit = 10)
params.options['ftol'] = 1e-10
params.options['gtol'] = 1e-4
params.options['maxiter'] = 100
params.options['svd_thresh'] = 1e-5

theDMFET = dfet.DFET(mf, mol_frag, mol_env,Ne_frag,Ne_env,\
                     boundary_atoms=boundary_atoms, boundary_atoms2=boundary_atoms2,umat = umat,\
                     oep_params=params, smear_sigma=temp, ecw_method = 'hf',mf_method = mf.xc, plot_dens=True)

umat = theDMFET.embedding_potential()
#INFO: ******************** input file end ********************


System: uname_result(system='Linux', node='tiger-h19c2n23', release='3.10.0-957.27.2.el7.x86_64', version='#1 SMP Tue Jul 30 11:12:20 EDT 2019', machine='x86_64', processor='x86_64')  Threads 40
Python 3.7.0 (default, Jun 28 2018, 13:15:42) 
[GCC 7.2.0]
numpy 1.16.4  scipy 1.4.0.dev0+0f78e0f
Date: Tue Aug 20 00:38:52 2019
PySCF version 1.5
PySCF path  /home/xingz/.local/lib/python3.7/site-packages/pyscf

[CONFIG] conf_file None
[INPUT] verbose = 4
[INPUT] num. atoms = 12
[INPUT] num. electrons = 18
[INPUT] charge = 0
[INPUT] spin (= nelec alpha-beta = 2S) = 0
[INPUT] symmetry False subgroup None
[INPUT] Mole.unit = angstrom
[INPUT]  1 Al     8.092960000000   4.046480000000  -0.000000000000 AA   15.293477937060   7.646738968530  -0.000000000000 Bohr
[INPUT]  2 Al     8.092960000000   6.069720000000  -2.023240000000 AA   15.293477937060  11.470108452795  -3.823369484265 Bohr
[INPUT]  3 Al    10.116200000000   4.046480000000  -2.023240000000 AA   19.116847421325   7.646738968530  -3.823369484265 Bohr
[INPUT]  4 Al     6.069720000000   4.046480000000  -2.023240000000 AA   11.470108452795   7.646738968530  -3.823369484265 Bohr
[INPUT]  5 Al     8.092960000000   2.023240000000  -2.023240000000 AA   15.293477937060   3.823369484265  -3.823369484265 Bohr
[INPUT]  6 Al     8.092960000000   4.046480000000  -4.046480000000 AA   15.293477937060   7.646738968530  -7.646738968530 Bohr
[INPUT]  7 GHOST-Al   6.069720000000   6.069720000000  -0.000000000000 AA   11.470108452795  11.470108452795  -0.000000000000 Bohr
[INPUT]  8 GHOST-Al  10.116200000000   2.023240000000  -0.000000000000 AA   19.116847421325   3.823369484265  -0.000000000000 Bohr
[INPUT]  9 GHOST-Al  10.116200000000   6.069720000000  -4.046480000000 AA   19.116847421325  11.470108452795  -7.646738968530 Bohr
[INPUT] 10 GHOST-Al   6.069720000000   2.023240000000  -0.000000000000 AA   11.470108452795   3.823369484265  -0.000000000000 Bohr
[INPUT] 11 GHOST-Al   6.069720000000   6.069720000000  -4.046480000000 AA   11.470108452795  11.470108452795  -7.646738968530 Bohr
[INPUT] 12 GHOST-Al  10.116200000000   2.023240000000  -4.046480000000 AA   19.116847421325   3.823369484265  -7.646738968530 Bohr

nuclear repulsion = 23.5047992975816
number of shells = 48
number of NR pGTOs = 192
number of NR cGTOs = 96
basis = stuttgartdz
ecp = stuttgartdz
CPU time:       337.88
#INFO: **** input file is /tigress/xingz/pydmfet/examples/research/Al12/dmfet/least/Al12.py ****
from pydmfet import locints, sdmfet, oep, tools, dfet_ao, proj_ao
from pydmfet.dfet_ao import dfet
from pydmfet.qcwrap.pyscf_rks_ao import rks_ao
from pyscf import gto, scf,dft, ao2mo,cc
import numpy as np
from pyscf.tools import molden, cubegen
import copy,time
from pydmfet.tools.sym import h_lattice_sym_tab

bas = 'stuttgartdz'
ecp = 'stuttgartdz'
temp = 0.005


mol = gto.Mole()
mol.atom = open('Al12.xyz').read()
mol.basis = bas
mol.ecp = ecp
mol.build(max_memory = 4000, verbose=4)

mf = rks_ao(mol,smear_sigma = temp)
mf.xc = 'pbe,pbe'
mf.max_cycle = 50
mf.scf(dm0=None)

natoms = mol.natm
impAtom = np.zeros([natoms], dtype=int)
for i in range(6):
    impAtom[i] = 1

ghost_frag = 1-impAtom
ghost_env = 1-ghost_frag

mol_frag = gto.Mole()
mol_frag.atom = tools.add_ghost(mol.atom, ghost_frag)
mol_frag.basis = bas
mol_frag.ecp = ecp
mol_frag.build(max_memory = 4000,verbose = 4)

mol_env = gto.Mole()
mol_env.atom = tools.add_ghost(mol.atom, ghost_env)
mol_env.basis =  bas
mol_env.ecp = ecp
mol_env.build(max_memory = 4000,verbose = 4)

Ne_frag = 18
Ne_env = 18

boundary_atoms = None
boundary_atoms2 =None

umat = None
umat = np.load("umat.npy")

params = oep.OEPparams(algorithm = 'leastsq', opt_method = 'L-BFGS-B', diffP_tol=1e-3, outer_maxit = 10)
params.options['ftol'] = 1e-10
params.options['gtol'] = 1e-4
params.options['maxiter'] = 100
params.options['svd_thresh'] = 1e-5

theDMFET = dfet.DFET(mf, mol_frag, mol_env,Ne_frag,Ne_env,\
                     boundary_atoms=boundary_atoms, boundary_atoms2=boundary_atoms2,umat = umat,\
                     oep_params=params, smear_sigma=temp, ecw_method = 'hf',mf_method = mf.xc, plot_dens=True)

umat = theDMFET.embedding_potential()
#INFO: ******************** input file end ********************


System: uname_result(system='Linux', node='tiger-h19c2n23', release='3.10.0-957.27.2.el7.x86_64', version='#1 SMP Tue Jul 30 11:12:20 EDT 2019', machine='x86_64', processor='x86_64')  Threads 40
Python 3.7.0 (default, Jun 28 2018, 13:15:42) 
[GCC 7.2.0]
numpy 1.16.4  scipy 1.4.0.dev0+0f78e0f
Date: Tue Aug 20 00:38:52 2019
PySCF version 1.5
PySCF path  /home/xingz/.local/lib/python3.7/site-packages/pyscf

[CONFIG] conf_file None
[INPUT] verbose = 4
[INPUT] num. atoms = 12
[INPUT] num. electrons = 18
[INPUT] charge = 0
[INPUT] spin (= nelec alpha-beta = 2S) = 0
[INPUT] symmetry False subgroup None
[INPUT] Mole.unit = angstrom
[INPUT]  1 GHOST-Al   8.092960000000   4.046480000000  -0.000000000000 AA   15.293477937060   7.646738968530  -0.000000000000 Bohr
[INPUT]  2 GHOST-Al   8.092960000000   6.069720000000  -2.023240000000 AA   15.293477937060  11.470108452795  -3.823369484265 Bohr
[INPUT]  3 GHOST-Al  10.116200000000   4.046480000000  -2.023240000000 AA   19.116847421325   7.646738968530  -3.823369484265 Bohr
[INPUT]  4 GHOST-Al   6.069720000000   4.046480000000  -2.023240000000 AA   11.470108452795   7.646738968530  -3.823369484265 Bohr
[INPUT]  5 GHOST-Al   8.092960000000   2.023240000000  -2.023240000000 AA   15.293477937060   3.823369484265  -3.823369484265 Bohr
[INPUT]  6 GHOST-Al   8.092960000000   4.046480000000  -4.046480000000 AA   15.293477937060   7.646738968530  -7.646738968530 Bohr
[INPUT]  7 Al     6.069720000000   6.069720000000  -0.000000000000 AA   11.470108452795  11.470108452795  -0.000000000000 Bohr
[INPUT]  8 Al    10.116200000000   2.023240000000  -0.000000000000 AA   19.116847421325   3.823369484265  -0.000000000000 Bohr
[INPUT]  9 Al    10.116200000000   6.069720000000  -4.046480000000 AA   19.116847421325  11.470108452795  -7.646738968530 Bohr
[INPUT] 10 Al     6.069720000000   2.023240000000  -0.000000000000 AA   11.470108452795   3.823369484265  -0.000000000000 Bohr
[INPUT] 11 Al     6.069720000000   6.069720000000  -4.046480000000 AA   11.470108452795  11.470108452795  -7.646738968530 Bohr
[INPUT] 12 Al    10.116200000000   2.023240000000  -4.046480000000 AA   19.116847421325   3.823369484265  -7.646738968530 Bohr

nuclear repulsion = 14.0938802665721
number of shells = 48
number of NR pGTOs = 192
number of NR cGTOs = 96
basis = stuttgartdz
ecp = stuttgartdz
CPU time:       338.29


******** <class 'pydmfet.dfet_ao.scf.EmbedSCF'> flags ********
method = EmbedSCF-RKS-RHF
initial guess = minao
damping factor = 0
level shift factor = 0
DIIS = <class 'pyscf.scf.diis.CDIIS'>
DIIS start cycle = 1
DIIS space = 8
SCF tol = 1e-09
SCF gradient tol = None
max. SCF cycles = 50
direct_scf = False
chkfile to save SCF result = /tmp/tmpbz2sthw8
max_memory 4000 MB (current use 568 MB)
XC functionals = pbe,pbe
small_rho_cutoff = 1e-07
radial grids: 
    Treutler-Ahlrichs (JCP 102, 346 (M4)) radial grids
    
becke partition: Becke, JCP, 88, 2547 (1988)
pruning grids: <function nwchem_prune at 0x2ae2c6ce7400>
grids dens level: 3
symmetrized grids: False
atomic radii adjust function: <function treutler_atomic_radii_adjust at 0x2ae2c6ce7378>
Set gradient conv threshold to 3.16228e-05
tot grids = 190200
init E= -9.27737673576347
HOMO: -0.24095839576965258 LUMO: -0.2388448402001652
mo_energy:
[-0.3677 -0.2682 -0.2652 -0.265  -0.2595 -0.2591 -0.2581 -0.241  -0.241
 -0.2388 -0.2382 -0.2311 -0.2298 -0.2161]
e_fermi =  -0.24052765113130922
[2.    1.992 1.986 1.985 1.956 1.953 1.942 1.048 1.043 0.833 0.775 0.263
 0.208 0.015]
entropy correction =  -0.03957672720137976
cycle= 1 E= -12.9218881694216  delta_E= -3.64  |g|= 0.855  |ddm|= 4.91
HOMO: -0.49362703994064644 LUMO: -0.444680012150818
mo_energy:
[-0.862 -0.671 -0.615 -0.614 -0.535 -0.525 -0.524 -0.494 -0.494 -0.445
 -0.441 -0.44  -0.429 -0.423]
e_fermi =  -0.4691302694790144
[2.    2.    2.    2.    2.    2.    2.    1.986 1.985 0.015 0.007 0.006]
entropy correction =  -0.0017877117213772986
cycle= 2 E= -12.8291996824068  delta_E= 0.0927  |g|= 1.08  |ddm|= 3.39
HOMO: -0.3802984644546955 LUMO: -0.3697349660113249
mo_energy:
[-0.583 -0.441 -0.415 -0.414 -0.406 -0.4   -0.4   -0.38  -0.38  -0.37
 -0.37  -0.369 -0.36  -0.332]
e_fermi =  -0.3764017783096761
[2.    2.    1.999 1.999 1.994 1.982 1.982 1.378 1.371 0.417 0.412 0.394
 0.07 ]
entropy correction =  -0.03043248180885311
cycle= 3 E= -13.3599917038964  delta_E= -0.531  |g|= 0.208  |ddm|= 1.83
HOMO: -0.37017109636554557 LUMO: -0.3692227938931136
mo_energy:
[-0.555 -0.406 -0.401 -0.401 -0.39  -0.389 -0.385 -0.37  -0.37  -0.369
 -0.365 -0.365 -0.356 -0.325]
e_fermi =  -0.3699036476250033
[2.    1.999 1.996 1.996 1.965 1.954 1.911 1.053 1.027 0.932 0.541 0.511
 0.115]
entropy correction =  -0.0386292997983435
cycle= 4 E= -13.3731626748642  delta_E= -0.0132  |g|= 0.168  |ddm|= 0.792
HOMO: -0.36802088859322857 LUMO: -0.36574887437898096
mo_energy:
[-0.552 -0.407 -0.399 -0.398 -0.388 -0.387 -0.384 -0.369 -0.368 -0.366
 -0.363 -0.363 -0.353 -0.323]
e_fermi =  -0.3677514299718335
[2.    1.999 1.996 1.995 1.965 1.961 1.931 1.121 1.027 0.802 0.568 0.535
 0.1  ]
entropy correction =  -0.03798144287073083
cycle= 5 E= -13.3260175981709  delta_E= 0.0471  |g|= 0.313  |ddm|= 0.696
HOMO: -0.3656003675379553 LUMO: -0.36500943721922474
mo_energy:
[-0.55  -0.408 -0.395 -0.393 -0.387 -0.386 -0.385 -0.366 -0.366 -0.365
 -0.362 -0.361 -0.351 -0.32 ]
e_fermi =  -0.3660615628880776
[2.    2.    1.993 1.991 1.968 1.961 1.952 1.015 0.954 0.895 0.606 0.567
 0.098]
entropy correction =  -0.03825129432776167
cycle= 6 E= -13.3944179703403  delta_E= -0.0684  |g|= 0.0365  |ddm|= 0.465
HOMO: -0.36605712611135544 LUMO: -0.3655743238985797
mo_energy:
[-0.55  -0.408 -0.395 -0.394 -0.388 -0.385 -0.385 -0.367 -0.366 -0.366
 -0.362 -0.361 -0.351 -0.321]
e_fermi =  -0.3664604644710786
[2.    1.999 1.993 1.992 1.972 1.951 1.95  1.073 0.96  0.912 0.57  0.538
 0.091]
entropy correction =  -0.03796010977529159
cycle= 7 E= -13.3908829877011  delta_E= 0.00353  |g|= 0.0697  |ddm|= 0.271
HOMO: -0.3673104505406785 LUMO: -0.365201656701657
mo_energy:
[-0.55  -0.407 -0.395 -0.394 -0.386 -0.386 -0.385 -0.367 -0.367 -0.365
 -0.362 -0.362 -0.352 -0.322]
e_fermi =  -0.3669137124219567
[2.    1.999 1.993 1.992 1.96  1.958 1.946 1.057 1.04  0.83  0.572 0.564
 0.088]
entropy correction =  -0.038121135760891094
cycle= 8 E= -13.3951700023465  delta_E= -0.00429  |g|= 0.0279  |ddm|= 0.19
HOMO: -0.3670350781107835 LUMO: -0.3650454280853025
mo_energy:
[-0.549 -0.407 -0.395 -0.394 -0.386 -0.386 -0.385 -0.367 -0.367 -0.365
 -0.362 -0.362 -0.351 -0.321]
e_fermi =  -0.3666821527972966
[2.    1.999 1.993 1.991 1.96  1.959 1.946 1.043 1.035 0.838 0.575 0.571
 0.089]
entropy correction =  -0.03821596469324753
cycle= 9 E= -13.3955062578546  delta_E= -0.000336  |g|= 0.0175  |ddm|= 0.0583
HOMO: -0.3659388626288279 LUMO: -0.36447046528487276
mo_energy:
[-0.548 -0.405 -0.393 -0.393 -0.385 -0.385 -0.384 -0.366 -0.366 -0.364
 -0.362 -0.361 -0.351 -0.321]
e_fermi =  -0.36585578191154844
[2.    1.999 1.992 1.991 1.961 1.96  1.944 1.013 1.008 0.862 0.591 0.588
 0.091]
entropy correction =  -0.03849380742873668
cycle= 10 E= -13.395597453907  delta_E= -9.12e-05  |g|= 0.0151  |ddm|= 0.05
HOMO: -0.3656634152792368 LUMO: -0.36435309153882417
mo_energy:
[-0.547 -0.405 -0.393 -0.392 -0.385 -0.385 -0.383 -0.366 -0.366 -0.364
 -0.361 -0.361 -0.351 -0.32 ]
e_fermi =  -0.36565831343557476
[2.    1.999 1.992 1.99  1.962 1.96  1.944 1.004 1.001 0.87  0.595 0.591
 0.092]
entropy correction =  -0.038559966005430726
cycle= 11 E= -13.395741670624  delta_E= -0.000144  |g|= 0.00468  |ddm|= 0.03
HOMO: -0.3653226148917559 LUMO: -0.3641810170006803
mo_energy:
[-0.547 -0.405 -0.393 -0.392 -0.385 -0.385 -0.383 -0.366 -0.365 -0.364
 -0.361 -0.361 -0.35  -0.32 ]
e_fermi =  -0.3654554287904493
[2.    1.999 1.992 1.99  1.962 1.96  1.944 1.008 0.987 0.873 0.601 0.591
 0.093]
entropy correction =  -0.03858935210244037
cycle= 12 E= -13.3957167284188  delta_E= 2.49e-05  |g|= 0.00573  |ddm|= 0.0262
HOMO: -0.3656257015807784 LUMO: -0.36429244127528976
mo_energy:
[-0.547 -0.405 -0.393 -0.392 -0.385 -0.385 -0.383 -0.366 -0.366 -0.364
 -0.361 -0.361 -0.35  -0.32 ]
e_fermi =  -0.36560742354552445
[2.    1.999 1.992 1.99  1.962 1.96  1.944 1.003 1.002 0.869 0.595 0.59
 0.092]
entropy correction =  -0.03854971779545535
cycle= 13 E= -13.3957591339969  delta_E= -4.24e-05  |g|= 0.000698  |ddm|= 0.019
HOMO: -0.3656239770508648 LUMO: -0.36429372810383115
mo_energy:
[-0.547 -0.405 -0.393 -0.392 -0.385 -0.385 -0.383 -0.366 -0.366 -0.364
 -0.361 -0.361 -0.35  -0.32 ]
e_fermi =  -0.3656116299300408
[2.    1.999 1.992 1.99  1.962 1.96  1.944 1.004 1.001 0.869 0.596 0.59
 0.092]
entropy correction =  -0.0385460623939404
cycle= 14 E= -13.3957571978043  delta_E= 1.94e-06  |g|= 0.00184  |ddm|= 0.00405
HOMO: -0.36560604522522727 LUMO: -0.36428192936726517
mo_energy:
[-0.547 -0.405 -0.393 -0.392 -0.385 -0.385 -0.383 -0.366 -0.366 -0.364
 -0.361 -0.361 -0.35  -0.32 ]
e_fermi =  -0.3655967668207232
[2.    1.999 1.992 1.99  1.962 1.96  1.944 1.004 1.001 0.869 0.596 0.59
 0.092]
entropy correction =  -0.038548928311306116
cycle= 15 E= -13.3957592541812  delta_E= -2.06e-06  |g|= 0.000673  |ddm|= 0.00344
HOMO: -0.3656451129339181 LUMO: -0.36430602725432587
mo_energy:
[-0.547 -0.405 -0.393 -0.392 -0.385 -0.385 -0.383 -0.366 -0.366 -0.364
 -0.361 -0.361 -0.35  -0.32 ]
e_fermi =  -0.3656267171937281
[2.    1.999 1.992 1.99  1.962 1.96  1.944 1.004 1.002 0.869 0.595 0.59
 0.092]
entropy correction =  -0.038544914913832946
cycle= 16 E= -13.3957596545108  delta_E= -4e-07  |g|= 7.02e-05  |ddm|= 0.0017
HOMO: -0.3656545320122739 LUMO: -0.3643104822526898
mo_energy:
[-0.547 -0.405 -0.393 -0.392 -0.385 -0.385 -0.383 -0.366 -0.366 -0.364
 -0.361 -0.361 -0.35  -0.32 ]
e_fermi =  -0.36563392781509524
[2.    1.999 1.992 1.99  1.962 1.96  1.944 1.005 1.002 0.868 0.595 0.59
 0.092]
entropy correction =  -0.03854212671499631
cycle= 17 E= -13.3957595960652  delta_E= 5.84e-08  |g|= 0.000306  |ddm|= 0.000707
HOMO: -0.36565337088168026 LUMO: -0.36430961757715663
mo_energy:
[-0.547 -0.405 -0.393 -0.392 -0.385 -0.385 -0.383 -0.366 -0.366 -0.364
 -0.361 -0.361 -0.35  -0.32 ]
e_fermi =  -0.3656329608598906
[2.    1.999 1.992 1.99  1.962 1.96  1.944 1.005 1.002 0.868 0.595 0.59
 0.092]
entropy correction =  -0.03854262369714607
cycle= 18 E= -13.3957596463981  delta_E= -5.03e-08  |g|= 0.000124  |ddm|= 0.000669
HOMO: -0.3656552942314413 LUMO: -0.3643109656090159
mo_energy:
[-0.547 -0.405 -0.393 -0.392 -0.385 -0.385 -0.383 -0.366 -0.366 -0.364
 -0.361 -0.361 -0.35  -0.32 ]
e_fermi =  -0.36563415118090276
[2.    1.999 1.992 1.99  1.962 1.96  1.944 1.005 1.002 0.868 0.595 0.59
 0.092]
entropy correction =  -0.03854262163918783
cycle= 19 E= -13.3957596127995  delta_E= 3.36e-08  |g|= 0.000235  |ddm|= 0.000716
HOMO: -0.3656530229409344 LUMO: -0.36430943460105075
mo_energy:
[-0.547 -0.405 -0.393 -0.392 -0.385 -0.385 -0.383 -0.366 -0.366 -0.364
 -0.361 -0.361 -0.35  -0.32 ]
e_fermi =  -0.3656322086272547
[2.    1.999 1.992 1.99  1.962 1.96  1.944 1.004 1.002 0.868 0.595 0.59
 0.092]
entropy correction =  -0.03854309163691235
cycle= 20 E= -13.3957596191515  delta_E= -6.35e-09  |g|= 0.000239  |ddm|= 0.0006
HOMO: -0.36565170615393516 LUMO: -0.3643087517243313
mo_energy:
[-0.547 -0.405 -0.393 -0.392 -0.385 -0.385 -0.383 -0.366 -0.366 -0.364
 -0.361 -0.361 -0.35  -0.32 ]
e_fermi =  -0.3656313167240412
[2.    1.999 1.992 1.99  1.962 1.96  1.944 1.004 1.002 0.869 0.595 0.59
 0.092]
entropy correction =  -0.038543349309766016
cycle= 21 E= -13.3957596604146  delta_E= -4.13e-08  |g|= 1.91e-05  |ddm|= 0.00042
HOMO: -0.365650500163414 LUMO: -0.3643081396706837
mo_energy:
[-0.547 -0.405 -0.393 -0.392 -0.385 -0.385 -0.383 -0.366 -0.366 -0.364
 -0.361 -0.361 -0.35  -0.32 ]
e_fermi =  -0.3656305317779425
[2.    1.999 1.992 1.99  1.962 1.96  1.944 1.004 1.002 0.869 0.595 0.59
 0.092]
entropy correction =  -0.03854354765359898
cycle= 22 E= -13.395759660642  delta_E= -2.27e-10  |g|= 1.48e-05  |ddm|= 8.19e-05
HOMO: -0.36565079297626596 LUMO: -0.364308844988651
mo_energy:
[-0.547 -0.405 -0.393 -0.392 -0.385 -0.385 -0.383 -0.366 -0.366 -0.364
 -0.361 -0.361 -0.35  -0.32 ]
e_fermi =  -0.3656313118945977
[2.    1.999 1.992 1.99  1.962 1.96  1.944 1.005 1.002 0.869 0.595 0.59
 0.092]
entropy correction =  -0.03854340125864298
Extra cycle  E= -13.3957596530092  delta_E= 7.63e-09  |g|= 8.64e-05  |ddm|= 0.000279
converged SCF energy = -13.3957596530092


******** <class 'pydmfet.dfet_ao.scf.EmbedSCF'> flags ********
method = EmbedSCF-RKS-RHF
initial guess = minao
damping factor = 0
level shift factor = 0
DIIS = <class 'pyscf.scf.diis.CDIIS'>
DIIS start cycle = 1
DIIS space = 8
SCF tol = 1e-09
SCF gradient tol = None
max. SCF cycles = 50
direct_scf = False
chkfile to save SCF result = /tmp/tmp8lrrmgy7
max_memory 4000 MB (current use 4529 MB)
XC functionals = pbe,pbe
small_rho_cutoff = 1e-07
radial grids: 
    Treutler-Ahlrichs (JCP 102, 346 (M4)) radial grids
    
becke partition: Becke, JCP, 88, 2547 (1988)
pruning grids: <function nwchem_prune at 0x2ae2c6ce7400>
grids dens level: 3
symmetrized grids: False
atomic radii adjust function: <function treutler_atomic_radii_adjust at 0x2ae2c6ce7378>
Set gradient conv threshold to 3.16228e-05
tot grids = 190200
init E= -9.1200494137531
HOMO: -0.18085337270624632 LUMO: -0.17010678575843094
mo_energy:
[-0.295 -0.295 -0.264 -0.24  -0.189 -0.186 -0.186 -0.181 -0.181 -0.17
 -0.167 -0.157 -0.157 -0.148]
e_fermi =  -0.17395975491117216
[2.    2.    2.    2.    1.914 1.849 1.847 1.598 1.598 0.633 0.414 0.062
 0.062 0.011 0.011]
entropy correction =  -0.032015644346584944
cycle= 1 E= -12.435710262021  delta_E= -3.32  |g|= 0.772  |ddm|= 5.23
HOMO: -0.1329558117489874 LUMO: -0.13002900611296067
mo_energy:
[-0.352 -0.352 -0.312 -0.262 -0.238 -0.238 -0.152 -0.133 -0.133 -0.13
 -0.111 -0.111 -0.109 -0.103]
e_fermi =  -0.1290802070139138
[2.    2.    2.    2.    2.    2.    1.981 1.395 1.369 1.095 0.055 0.049
 0.034 0.01  0.009]
entropy correction =  -0.023787850655267877
cycle= 2 E= -12.364805187529  delta_E= 0.0709  |g|= 0.978  |ddm|= 2.88
HOMO: -0.21616873787989613 LUMO: -0.20802175979204726
mo_energy:
[-0.375 -0.374 -0.342 -0.298 -0.239 -0.239 -0.233 -0.216 -0.216 -0.208
 -0.206 -0.206 -0.197 -0.189]
e_fermi =  -0.21298610084685662
[2.    2.    2.    2.    1.99  1.989 1.967 1.314 1.308 0.541 0.387 0.382
 0.086 0.018 0.017]
entropy correction =  -0.032792745875035445
cycle= 3 E= -12.7403356895058  delta_E= -0.376  |g|= 0.235  |ddm|= 1.35
HOMO: -0.2175459504206636 LUMO: -0.21279433217945765
mo_energy:
[-0.364 -0.364 -0.333 -0.293 -0.232 -0.227 -0.227 -0.218 -0.218 -0.213
 -0.213 -0.208 -0.2   -0.191]
e_fermi =  -0.21529413204907857
[2.    2.    2.    2.    1.931 1.83  1.809 1.226 1.221 0.755 0.745 0.365
 0.084 0.017 0.017]
entropy correction =  -0.04163905402629325
cycle= 4 E= -12.7634343560773  delta_E= -0.0231  |g|= 0.0967  |ddm|= 0.56
HOMO: -0.21761844958733487 LUMO: -0.2129395246289611
mo_energy:
[-0.364 -0.364 -0.332 -0.292 -0.232 -0.226 -0.226 -0.218 -0.218 -0.213
 -0.212 -0.208 -0.199 -0.191]
e_fermi =  -0.2152870050627393
[2.    2.    2.    2.    1.935 1.807 1.802 1.236 1.229 0.769 0.727 0.381
 0.081 0.016 0.016]
entropy correction =  -0.04188878158814406
cycle= 5 E= -12.7537618559237  delta_E= 0.00967  |g|= 0.15  |ddm|= 0.358
HOMO: -0.2171944685190434 LUMO: -0.21253242833286998
mo_energy:
[-0.364 -0.363 -0.332 -0.292 -0.232 -0.226 -0.226 -0.217 -0.217 -0.213
 -0.212 -0.208 -0.199 -0.191]
e_fermi =  -0.21495180436585168
[2.    2.    2.    2.    1.934 1.818 1.8   1.223 1.221 0.763 0.74  0.389
 0.077 0.017 0.017]
entropy correction =  -0.04191713978342057
cycle= 6 E= -12.7707681117001  delta_E= -0.017  |g|= 0.0144  |ddm|= 0.243
HOMO: -0.21699749715226416 LUMO: -0.21224169223261494
mo_energy:
[-0.363 -0.363 -0.331 -0.292 -0.231 -0.226 -0.225 -0.217 -0.217 -0.212
 -0.212 -0.207 -0.199 -0.191]
e_fermi =  -0.214651944666006
[2.    2.    2.    2.    1.932 1.827 1.783 1.235 1.23  0.764 0.734 0.382
 0.077 0.018 0.017]
entropy correction =  -0.04194019861217561
cycle= 7 E= -12.7706399003145  delta_E= 0.000128  |g|= 0.0227  |ddm|= 0.0847
HOMO: -0.2170519321446366 LUMO: -0.21219883920070065
mo_energy:
[-0.364 -0.363 -0.331 -0.292 -0.231 -0.226 -0.226 -0.217 -0.217 -0.212
 -0.212 -0.207 -0.199 -0.191]
e_fermi =  -0.21471818485766359
[2.    2.    2.    2.    1.931 1.813 1.798 1.236 1.229 0.753 0.745 0.381
 0.077 0.018 0.017]
entropy correction =  -0.04194810756866822
cycle= 8 E= -12.7709843138505  delta_E= -0.000344  |g|= 0.00927  |ddm|= 0.0695
HOMO: -0.21724714499196718 LUMO: -0.2124209613324098
mo_energy:
[-0.364 -0.363 -0.332 -0.292 -0.232 -0.226 -0.226 -0.217 -0.217 -0.212
 -0.212 -0.208 -0.199 -0.191]
e_fermi =  -0.21489321457659477
[2.    2.    2.    2.    1.932 1.806 1.802 1.233 1.231 0.758 0.747 0.38
 0.077 0.018 0.017]
entropy correction =  -0.04197941094811274
cycle= 9 E= -12.7710455773089  delta_E= -6.13e-05  |g|= 0.00323  |ddm|= 0.02
HOMO: -0.21728917441531662 LUMO: -0.21244828362632232
mo_energy:
[-0.364 -0.363 -0.332 -0.292 -0.232 -0.226 -0.226 -0.217 -0.217 -0.212
 -0.212 -0.208 -0.199 -0.191]
e_fermi =  -0.21494676002078805
[2.    2.    2.    2.    1.932 1.804 1.802 1.233 1.23  0.755 0.752 0.379
 0.077 0.018 0.017]
entropy correction =  -0.04200021922282849
cycle= 10 E= -12.7710521189785  delta_E= -6.54e-06  |g|= 0.00226  |ddm|= 0.011
HOMO: -0.2172783919434051 LUMO: -0.2124398266974645
mo_energy:
[-0.364 -0.363 -0.332 -0.292 -0.232 -0.226 -0.226 -0.217 -0.217 -0.212
 -0.212 -0.208 -0.199 -0.191]
e_fermi =  -0.21493989523057966
[2.    2.    2.    2.    1.932 1.804 1.803 1.233 1.23  0.755 0.753 0.379
 0.077 0.018 0.017]
entropy correction =  -0.04200099198142801
cycle= 11 E= -12.7710551983311  delta_E= -3.08e-06  |g|= 0.000887  |ddm|= 0.00541
HOMO: -0.2172553618392139 LUMO: -0.21241158904500046
mo_energy:
[-0.363 -0.363 -0.332 -0.292 -0.232 -0.226 -0.226 -0.217 -0.217 -0.212
 -0.212 -0.208 -0.199 -0.191]
e_fermi =  -0.21491495381616063
[2.    2.    2.    2.    1.932 1.804 1.803 1.233 1.23  0.755 0.752 0.379
 0.077 0.018 0.017]
entropy correction =  -0.04199383873719253
cycle= 12 E= -12.7710539998775  delta_E= 1.2e-06  |g|= 0.00154  |ddm|= 0.00297
HOMO: -0.21724754340182248 LUMO: -0.21240145964448354
mo_energy:
[-0.363 -0.363 -0.332 -0.292 -0.232 -0.226 -0.226 -0.217 -0.217 -0.212
 -0.212 -0.208 -0.199 -0.191]
e_fermi =  -0.21490624036798595
[2.    2.    2.    2.    1.932 1.804 1.803 1.233 1.23  0.755 0.752 0.379
 0.077 0.018 0.017]
entropy correction =  -0.04198772228361865
cycle= 13 E= -12.7710558067574  delta_E= -1.81e-06  |g|= 6.73e-05  |ddm|= 0.00253
HOMO: -0.21724639121838227 LUMO: -0.21239965999842395
mo_energy:
[-0.363 -0.363 -0.332 -0.292 -0.232 -0.226 -0.226 -0.217 -0.217 -0.212
 -0.212 -0.208 -0.199 -0.191]
e_fermi =  -0.21490481087444932
[2.    2.    2.    2.    1.932 1.804 1.803 1.233 1.23  0.755 0.752 0.379
 0.077 0.018 0.017]
entropy correction =  -0.0419880225466313
cycle= 14 E= -12.7710558070496  delta_E= -2.92e-10  |g|= 5.74e-05  |ddm|= 0.00038
HOMO: -0.21724767288827562 LUMO: -0.21240147908205628
mo_energy:
[-0.363 -0.363 -0.332 -0.292 -0.232 -0.226 -0.226 -0.217 -0.217 -0.212
 -0.212 -0.208 -0.199 -0.191]
e_fermi =  -0.21490607604673612
[2.    2.    2.    2.    1.932 1.804 1.803 1.233 1.23  0.755 0.752 0.379
 0.077 0.018 0.017]
entropy correction =  -0.04198839865771779
cycle= 15 E= -12.7710558105615  delta_E= -3.51e-09  |g|= 2.94e-05  |ddm|= 0.000212
HOMO: -0.2172483699828796 LUMO: -0.21240230223161344
mo_energy:
[-0.363 -0.363 -0.332 -0.292 -0.232 -0.226 -0.226 -0.217 -0.217 -0.212
 -0.212 -0.208 -0.199 -0.191]
e_fermi =  -0.21490676907568038
[2.    2.    2.    2.    1.932 1.804 1.803 1.233 1.23  0.755 0.752 0.379
 0.077 0.018 0.017]
entropy correction =  -0.04198867962416258
cycle= 16 E= -12.7710558102885  delta_E= 2.73e-10  |g|= 3.45e-05  |ddm|= 9.87e-05
HOMO: -0.2172479855348242 LUMO: -0.21240161471463298
mo_energy:
[-0.363 -0.363 -0.332 -0.292 -0.232 -0.226 -0.226 -0.217 -0.217 -0.212
 -0.212 -0.208 -0.199 -0.191]
e_fermi =  -0.21490639699683842
[2.    2.    2.    2.    1.932 1.804 1.803 1.233 1.23  0.755 0.752 0.379
 0.077 0.018 0.017]
entropy correction =  -0.041988442935544906
cycle= 17 E= -12.771055810715  delta_E= -4.27e-10  |g|= 2.59e-05  |ddm|= 8.66e-05
HOMO: -0.21724838874460012 LUMO: -0.21240291839186884
mo_energy:
[-0.363 -0.363 -0.332 -0.292 -0.232 -0.226 -0.226 -0.217 -0.217 -0.212
 -0.212 -0.208 -0.199 -0.191]
e_fermi =  -0.21490678103916683
[2.    2.    2.    2.    1.932 1.804 1.803 1.233 1.23  0.755 0.752 0.379
 0.077 0.018 0.017]
entropy correction =  -0.04198857261070071
Extra cycle  E= -12.7710557934915  delta_E= 1.72e-08  |g|= 0.000149  |ddm|= 0.000376
converged SCF energy = -12.7710557934915
|umat| =  2.736585902199383
rks_ao.ne_frozen =  0
Set gradient conv threshold to 3.16228e-05
Initial guess from hcore.
HOMO:  -3.5056541411158095 LUMO:  -3.311440707664508
Fermi energy:      -3.4068124997
[2. 2. 2. 2. 2. 2. 2. 2. 2.]
tot grids = 190200
init E= -10.1060212967294
HOMO:  -0.06725463362055252 LUMO:  -0.06707000687749874
Fermi energy:      -0.0713989041
[2.     2.     2.     2.     2.     2.     1.9948 1.9483 0.6078 0.5923
 0.4372 0.4196]
entropy correction =  -0.02398589287586091
cycle= 1 E= -10.1799104389502  delta_E= -0.0739  |g|= 2.77  |ddm|= 7.89
HOMO:  -0.7814041879056055 LUMO:  -0.651205727632471
Fermi energy:      -0.7149578384
[2. 2. 2. 2. 2. 2. 2. 2. 2.]
entropy correction =  -9.611115009484238e-07
cycle= 2 E= -11.512544029026  delta_E= -1.33  |g|= 2.04  |ddm|= 6.51
HOMO:  -0.4510544168113919 LUMO:  -0.4182017718426275
Fermi energy:      -0.4352603568
[2.0000e+00 2.0000e+00 2.0000e+00 2.0000e+00 1.9997e+00 1.9971e+00
 1.9970e+00 1.9190e+00 1.9185e+00 6.3863e-02 6.2711e-02 2.4560e-02
 1.6914e-02 6.6700e-04]
entropy correction =  -0.007623795433048684
cycle= 3 E= -13.2261755434108  delta_E= -1.71  |g|= 0.549  |ddm|= 3.83
HOMO:  -0.36594903606947154 LUMO:  -0.36535330655707476
Fermi energy:      -0.3681044689
[2.0000e+00 1.9993e+00 1.9970e+00 1.9965e+00 1.9766e+00 1.9752e+00
 1.8993e+00 1.2556e+00 7.8773e-01 7.3162e-01 5.9881e-01 5.5589e-01
 2.2640e-01 1.9214e-04]
entropy correction =  -0.03900375523327775
cycle= 4 E= -13.3593888349546  delta_E= -0.133  |g|= 0.212  |ddm|= 1.67
HOMO:  -0.36885559188274536 LUMO:  -0.36317035605177583
Fermi energy:      -0.3678223542
[2.0000e+00 1.9999e+00 1.9990e+00 1.9988e+00 1.9842e+00 1.9790e+00
 1.9513e+00 1.4293e+00 1.1030e+00 5.6569e-01 4.7996e-01 4.3539e-01
 7.4335e-02 1.6054e-04]
entropy correction =  -0.033449245307330434
cycle= 5 E= -13.0116858750837  delta_E= 0.348  |g|= 0.742  |ddm|= 1.39
HOMO:  -0.37344688727468356 LUMO:  -0.36898136052506364
Fermi energy:      -0.3718072405
[2.0000e+00 1.9999e+00 1.9978e+00 1.9962e+00 1.9729e+00 1.9688e+00
 1.9601e+00 1.1729e+00 1.1625e+00 7.2470e-01 4.8316e-01 4.7474e-01
 8.6053e-02 2.0272e-04]
entropy correction =  -0.035652171192080404
cycle= 6 E= -13.3820031693682  delta_E= -0.37  |g|= 0.133  |ddm|= 1.05
HOMO:  -0.37163405192880117 LUMO:  -0.3707828058947771
Fermi energy:      -0.3710507986
[2.0000e+00 1.9995e+00 1.9972e+00 1.9897e+00 1.9766e+00 1.9524e+00
 1.9239e+00 1.2226e+00 1.0583e+00 9.7321e-01 5.6000e-01 2.8206e-01
 6.4300e-02 2.2123e-04]
entropy correction =  -0.03578238067705628
cycle= 7 E= -13.3659326503941  delta_E= 0.0161  |g|= 0.166  |ddm|= 0.603
HOMO:  -0.36989898594745596 LUMO:  -0.3673463550627075
Fermi energy:      -0.3694351469
[2.0000e+00 1.9993e+00 1.9939e+00 1.9922e+00 1.9614e+00 1.9529e+00
 1.9407e+00 1.1702e+00 1.0464e+00 7.9411e-01 5.4267e-01 5.2572e-01
 8.0332e-02 2.3919e-04]
entropy correction =  -0.0376246148827279
cycle= 8 E= -13.3924439604876  delta_E= -0.0265  |g|= 0.0636  |ddm|= 0.509
HOMO:  -0.36759251424742884 LUMO:  -0.3655335029542146
Fermi energy:      -0.3671473921
[2.0000e+00 1.9992e+00 1.9930e+00 1.9903e+00 1.9624e+00 1.9553e+00
 1.9421e+00 1.0655e+00 1.0445e+00 8.4000e-01 5.6840e-01 5.5451e-01
 8.4652e-02 2.3227e-04]
entropy correction =  -0.03816184022440968
cycle= 9 E= -13.3865869431253  delta_E= 0.00586  |g|= 0.114  |ddm|= 0.277
HOMO:  -0.3643369613442014 LUMO:  -0.3637651523898751
Fermi energy:      -0.3649640903
[2.0000e+00 1.9992e+00 1.9910e+00 1.9881e+00 1.9632e+00 1.9620e+00
 1.9406e+00 1.0297e+00 9.3737e-01 8.8068e-01 6.2609e-01 5.9042e-01
 9.1478e-02 2.2700e-04]
entropy correction =  -0.03873521497482913
cycle= 10 E= -13.3933817656995  delta_E= -0.00679  |g|= 0.0545  |ddm|= 0.238
HOMO:  -0.36412475410898587 LUMO:  -0.3636042321437713
Fermi energy:      -0.3645839287
[2.0000e+00 1.9992e+00 1.9909e+00 1.9892e+00 1.9631e+00 1.9610e+00
 1.9431e+00 9.9298e-01 9.5411e-01 9.0234e-01 6.1396e-01 5.9487e-01
 9.4930e-02 2.2464e-04]
entropy correction =  -0.03874362698883941
cycle= 11 E= -13.3936171771232  delta_E= -0.000235  |g|= 0.0565  |ddm|= 0.156
HOMO:  -0.36431877512167044 LUMO:  -0.3635253761349056
Fermi energy:      -0.3646565432
[2.0000e+00 1.9993e+00 1.9913e+00 1.9894e+00 1.9630e+00 1.9614e+00
 1.9450e+00 9.9066e-01 9.6624e-01 8.8736e-01 6.0958e-01 6.0241e-01
 9.4201e-02 2.2674e-04]
entropy correction =  -0.038680379442163786
cycle= 12 E= -13.395650985048  delta_E= -0.00203  |g|= 0.0151  |ddm|= 0.119
HOMO:  -0.36568925028626237 LUMO:  -0.3643139464515231
Fermi energy:      -0.3656403618
[2.0000e+00 1.9993e+00 1.9921e+00 1.9905e+00 1.9613e+00 1.9598e+00
 1.9435e+00 1.0094e+00 1.0049e+00 8.6813e-01 5.9218e-01 5.8635e-01
 9.2342e-02 2.3164e-04]
entropy correction =  -0.03853123362831779
cycle= 13 E= -13.3958651905704  delta_E= -0.000214  |g|= 0.00265  |ddm|= 0.0474
HOMO:  -0.36571411420142713 LUMO:  -0.36433907105725033
Fermi energy:      -0.3656745518
[2.0000e+00 1.9993e+00 1.9920e+00 1.9903e+00 1.9615e+00 1.9601e+00
 1.9441e+00 1.0071e+00 1.0040e+00 8.6724e-01 5.9376e-01 5.8832e-01
 9.2097e-02 2.3067e-04]
entropy correction =  -0.03852949951852509
cycle= 14 E= -13.3958691347166  delta_E= -3.94e-06  |g|= 0.00161  |ddm|= 0.00883
HOMO:  -0.365753445284097 LUMO:  -0.36437530799960705
Fermi energy:      -0.3657122664
[2.0000e+00 1.9993e+00 1.9919e+00 1.9904e+00 1.9617e+00 1.9598e+00
 1.9440e+00 1.0072e+00 1.0041e+00 8.6710e-01 5.9418e-01 5.8801e-01
 9.2042e-02 2.3074e-04]
entropy correction =  -0.03853133629535088
cycle= 15 E= -13.3958691304094  delta_E= 4.31e-09  |g|= 0.00143  |ddm|= 0.00611
HOMO:  -0.3657254206136661 LUMO:  -0.3643543964351506
Fermi energy:      -0.3656848768
[2.0000e+00 1.9993e+00 1.9920e+00 1.9903e+00 1.9615e+00 1.9601e+00
 1.9439e+00 1.0060e+00 1.0041e+00 8.6773e-01 5.9352e-01 5.8927e-01
 9.2114e-02 2.3080e-04]
entropy correction =  -0.03853794311452092
cycle= 16 E= -13.3958665586814  delta_E= 2.57e-06  |g|= 0.00231  |ddm|= 0.00753
HOMO:  -0.36574564757237715 LUMO:  -0.3643696238664845
Fermi energy:      -0.3657001515
[2.0000e+00 1.9993e+00 1.9920e+00 1.9903e+00 1.9615e+00 1.9600e+00
 1.9438e+00 1.0063e+00 1.0045e+00 8.6773e-01 5.9380e-01 5.8843e-01
 9.2129e-02 2.3103e-04]
entropy correction =  -0.038539395484514
cycle= 17 E= -13.3958711666223  delta_E= -4.61e-06  |g|= 0.000378  |ddm|= 0.00508
HOMO:  -0.3657350440257593 LUMO:  -0.3643630295331109
Fermi energy:      -0.3656941371
[2.0000e+00 1.9993e+00 1.9920e+00 1.9903e+00 1.9615e+00 1.9600e+00
 1.9439e+00 1.0065e+00 1.0041e+00 8.6767e-01 5.9399e-01 5.8841e-01
 9.2125e-02 2.3088e-04]
entropy correction =  -0.038537520405037065
cycle= 18 E= -13.3958712277068  delta_E= -6.11e-08  |g|= 0.000279  |ddm|= 0.00132
HOMO:  -0.3657141950110164 LUMO:  -0.3643536786885211
Fermi energy:      -0.3656815561
[2.0000e+00 1.9993e+00 1.9919e+00 1.9903e+00 1.9615e+00 1.9600e+00
 1.9438e+00 1.0066e+00 1.0033e+00 8.6799e-01 5.9426e-01 5.8858e-01
 9.2155e-02 2.3091e-04]
entropy correction =  -0.03854134607936674
cycle= 19 E= -13.3958711719594  delta_E= 5.57e-08  |g|= 0.00037  |ddm|= 0.00135
HOMO:  -0.36571848994150413 LUMO:  -0.36435351459703513
Fermi energy:      -0.3656809626
[2.0000e+00 1.9993e+00 1.9919e+00 1.9903e+00 1.9615e+00 1.9600e+00
 1.9438e+00 1.0061e+00 1.0038e+00 8.6803e-01 5.9412e-01 5.8866e-01
 9.2166e-02 2.3090e-04]
entropy correction =  -0.03854126741303886
cycle= 20 E= -13.3958706662722  delta_E= 5.06e-07  |g|= 0.000943  |ddm|= 0.00184
HOMO:  -0.3657210372908703 LUMO:  -0.36435415588175396
Fermi energy:      -0.3656821753
[2.0000e+00 1.9993e+00 1.9919e+00 1.9903e+00 1.9615e+00 1.9600e+00
 1.9439e+00 1.0061e+00 1.0039e+00 8.6797e-01 5.9405e-01 5.8867e-01
 9.2162e-02 2.3088e-04]
entropy correction =  -0.03854033863621276
cycle= 21 E= -13.395871271464  delta_E= -6.05e-07  |g|= 0.000184  |ddm|= 0.00148
HOMO:  -0.3657205196918058 LUMO:  -0.3643548944647802
Fermi energy:      -0.3656829601
[2.0000e+00 1.9993e+00 1.9919e+00 1.9903e+00 1.9615e+00 1.9600e+00
 1.9439e+00 1.0062e+00 1.0038e+00 8.6797e-01 5.9408e-01 5.8862e-01
 9.2162e-02 2.3089e-04]
entropy correction =  -0.0385404016358341
cycle= 22 E= -13.3958712963719  delta_E= -2.49e-08  |g|= 4.64e-05  |ddm|= 0.000415
HOMO:  -0.3657246209759997 LUMO:  -0.3643571920879034
Fermi energy:      -0.3656861184
[2.0000e+00 1.9993e+00 1.9920e+00 1.9903e+00 1.9615e+00 1.9600e+00
 1.9439e+00 1.0063e+00 1.0039e+00 8.6788e-01 5.9402e-01 5.8856e-01
 9.2154e-02 2.3088e-04]
entropy correction =  -0.0385393478822848
cycle= 23 E= -13.3958712940946  delta_E= 2.28e-09  |g|= 6.94e-05  |ddm|= 0.000199
HOMO:  -0.3657259578841686 LUMO:  -0.36435802799135475
Fermi energy:      -0.3656870432
[2.0000e+00 1.9993e+00 1.9919e+00 1.9903e+00 1.9615e+00 1.9600e+00
 1.9439e+00 1.0063e+00 1.0039e+00 8.6788e-01 5.9403e-01 5.8852e-01
 9.2153e-02 2.3089e-04]
entropy correction =  -0.03853937793452986
cycle= 24 E= -13.395871289327  delta_E= 4.77e-09  |g|= 9.72e-05  |ddm|= 0.000315
HOMO:  -0.36572443627359263 LUMO:  -0.36435706628593645
Fermi energy:      -0.3656858216
[2.0000e+00 1.9993e+00 1.9919e+00 1.9903e+00 1.9615e+00 1.9600e+00
 1.9439e+00 1.0063e+00 1.0039e+00 8.6790e-01 5.9403e-01 5.8857e-01
 9.2155e-02 2.3089e-04]
entropy correction =  -0.038539743638007294
cycle= 25 E= -13.3958712970706  delta_E= -7.74e-09  |g|= 3.45e-05  |ddm|= 0.000265
HOMO:  -0.3657254879622167 LUMO:  -0.3643578292636392
Fermi energy:      -0.3656867010
[2.0000e+00 1.9993e+00 1.9919e+00 1.9903e+00 1.9615e+00 1.9600e+00
 1.9439e+00 1.0063e+00 1.0039e+00 8.6789e-01 5.9403e-01 5.8854e-01
 9.2154e-02 2.3090e-04]
entropy correction =  -0.03853968070178409
cycle= 26 E= -13.3958712975273  delta_E= -4.57e-10  |g|= 2.38e-05  |ddm|= 0.000122
HOMO:  -0.3657236490003141 LUMO:  -0.3643561898801686
Fermi energy:      -0.3656849670
[2.0000e+00 1.9993e+00 1.9919e+00 1.9903e+00 1.9615e+00 1.9600e+00
 1.9439e+00 1.0063e+00 1.0039e+00 8.6790e-01 5.9403e-01 5.8861e-01
 9.2154e-02 2.3088e-04]
entropy correction =  -0.038539709053196154
Extra cycle  E= -13.3958712602239  delta_E= 3.73e-08  |g|= 0.000224  |ddm|= 0.000436
entropy correction =  -0.038539709053196154
rks_ao.ne_frozen =  0
Set gradient conv threshold to 3.16228e-05
Initial guess from hcore.
HOMO:  -2.5695633101770547 LUMO:  -2.5692641665602656
Fermi energy:      -2.5700938929
[2.0000e+00 2.0000e+00 2.0000e+00 2.0000e+00 2.0000e+00 2.0000e+00
 2.0000e+00 1.9978e+00 9.4699e-01 9.1722e-01 6.4690e-02 6.2799e-02
 5.0186e-03 4.7276e-03 7.5964e-04]
tot grids = 190200
init E= -9.70257023983389
HOMO:  0.020168096364093363 LUMO:  0.022931972470263188
Fermi energy:       0.0201308848
[2.     2.     2.     2.     2.     2.     1.9952 1.3437 0.9963 0.727
 0.4091 0.2244 0.1141 0.0918 0.0461 0.0379 0.0084 0.0032 0.0027]
entropy correction =  -0.03513988295671141
cycle= 1 E= -10.9791499002737  delta_E= -1.28  |g|= 2.09  |ddm|= 9.47
HOMO:  -0.44984978640520323 LUMO:  -0.44217468217706346
Fermi energy:      -0.4451830887
[2.0000e+00 2.0000e+00 2.0000e+00 2.0000e+00 2.0000e+00 2.0000e+00
 1.9992e+00 1.4984e+00 1.4355e+00 7.0792e-01 1.7219e-01 1.5581e-01
 2.8895e-02 1.9481e-03]
entropy correction =  -0.024628651389830884
cycle= 2 E= -11.037195651366  delta_E= -0.058  |g|= 2.13  |ddm|= 9.27
HOMO:  -0.29482378166688833 LUMO:  -0.28144118016123126
Fermi energy:      -0.2868833723
[2.     2.     2.     2.     1.9961 1.9816 1.9726 1.6885 1.6607 0.5038
 0.0729 0.0647 0.0512 0.004  0.0037]
entropy correction =  -0.02037655802758836
cycle= 3 E= -12.3063972797721  delta_E= -1.27  |g|= 0.864  |ddm|= 1.85
HOMO:  -0.2568796433272758 LUMO:  -0.25395722178705443
Fermi energy:      -0.2553686837
[2.0000e+00 2.0000e+00 2.0000e+00 2.0000e+00 1.9991e+00 1.9524e+00
 1.9020e+00 1.7079e+00 1.1500e+00 8.5978e-01 1.8013e-01 1.6932e-01
 7.6485e-02 1.8794e-03 8.1625e-04 1.4012e-04]
entropy correction =  -0.0285972635581709
cycle= 4 E= -11.5093487390321  delta_E= 0.797  |g|=  1.3  |ddm|= 2.15
HOMO:  -0.2366860367977065 LUMO:  -0.23044875111844104
Fermi energy:      -0.2341176347
[2.0000e+00 2.0000e+00 2.0000e+00 2.0000e+00 1.9699e+00 1.9341e+00
 1.8534e+00 1.3040e+00 1.2513e+00 6.4873e-01 6.3173e-01 2.9896e-01
 6.8561e-02 2.4779e-02 1.4185e-02 3.6497e-04]
entropy correction =  -0.03728105950097186
cycle= 5 E= -12.7583940792933  delta_E= -1.25  |g|= 0.122  |ddm|= 2.07
HOMO:  -0.21574122598357875 LUMO:  -0.214306167267003
Fermi energy:      -0.2147360398
[2.0000e+00 2.0000e+00 2.0000e+00 2.0000e+00 1.9574e+00 1.9385e+00
 1.7559e+00 1.5006e+00 1.1002e+00 9.5704e-01 4.1704e-01 2.4489e-01
 9.7373e-02 1.7715e-02 1.2884e-02 4.0282e-04]
entropy correction =  -0.03723564790627155
cycle= 6 E= -12.5596956218497  delta_E= 0.199  |g|= 0.52  |ddm|= 1.33
HOMO:  -0.2167316376668867 LUMO:  -0.21214174677371173
Fermi energy:      -0.2141577435
[2.0000e+00 2.0000e+00 2.0000e+00 2.0000e+00 1.9302e+00 1.7740e+00
 1.7419e+00 1.2847e+00 1.2519e+00 8.0109e-01 7.4389e-01 3.5193e-01
 8.3291e-02 2.0713e-02 1.5918e-02 5.2856e-04]
entropy correction =  -0.04279889387237487
cycle= 7 E= -12.7614164847851  delta_E= -0.202  |g|= 0.107  |ddm|= 0.969
HOMO:  -0.21715416934536552 LUMO:  -0.21298997432759822
Fermi energy:      -0.2147541556
[2.0000e+00 2.0000e+00 2.0000e+00 2.0000e+00 1.9347e+00 1.8482e+00
 1.7017e+00 1.2496e+00 1.2355e+00 8.2539e-01 7.1522e-01 3.7446e-01
 7.9679e-02 1.8271e-02 1.6918e-02 4.8389e-04]
entropy correction =  -0.0424315255749961
cycle= 8 E= -12.7626836203919  delta_E= -0.00127  |g|= 0.104  |ddm|= 0.291
HOMO:  -0.21710668785563728 LUMO:  -0.21226221524527067
Fermi energy:      -0.2147508500
[2.0000e+00 2.0000e+00 2.0000e+00 2.0000e+00 1.9329e+00 1.7971e+00
 1.7915e+00 1.2417e+00 1.2313e+00 7.5615e-01 7.5484e-01 3.8174e-01
 7.7625e-02 1.7824e-02 1.6859e-02 4.8023e-04]
entropy correction =  -0.04218605502687867
cycle= 9 E= -12.7681674214725  delta_E= -0.00548  |g|= 0.0618  |ddm|= 0.231
HOMO:  -0.21606710995026376 LUMO:  -0.2112317961403509
Fermi energy:      -0.2137432819
[2.0000e+00 2.0000e+00 2.0000e+00 2.0000e+00 1.9307e+00 1.8196e+00
 1.7993e+00 1.2333e+00 1.2283e+00 7.5400e-01 7.3821e-01 3.8339e-01
 7.7814e-02 1.7870e-02 1.6987e-02 4.9566e-04]
entropy correction =  -0.041883258291501274
cycle= 10 E= -12.7705209383329  delta_E= -0.00235  |g|= 0.0258  |ddm|= 0.119
HOMO:  -0.21706455065443725 LUMO:  -0.21219782470263526
Fermi energy:      -0.2147040156
[2.0000e+00 2.0000e+00 2.0000e+00 2.0000e+00 1.9314e+00 1.8089e+00
 1.7983e+00 1.2368e+00 1.2318e+00 7.5450e-01 7.4656e-01 3.7930e-01
 7.6943e-02 1.7780e-02 1.7158e-02 4.7870e-04]
entropy correction =  -0.04196883428445125
cycle= 11 E= -12.7706673801733  delta_E= -0.000146  |g|= 0.0232  |ddm|= 0.0787
HOMO:  -0.21722283911159684 LUMO:  -0.21245259423252408
Fermi energy:      -0.2148822348
[2.0000e+00 2.0000e+00 2.0000e+00 2.0000e+00 1.9316e+00 1.8070e+00
 1.7961e+00 1.2339e+00 1.2299e+00 7.6171e-01 7.4871e-01 3.7882e-01
 7.6942e-02 1.7758e-02 1.7162e-02 4.7486e-04]
entropy correction =  -0.042043170420532315
cycle= 12 E= -12.7710264462003  delta_E= -0.000359  |g|= 0.0067  |ddm|= 0.0489
HOMO:  -0.2172312439054147 LUMO:  -0.21239251423131184
Fermi energy:      -0.2148970749
[2.0000e+00 2.0000e+00 2.0000e+00 2.0000e+00 1.9317e+00 1.8068e+00
 1.8006e+00 1.2335e+00 1.2293e+00 7.5465e-01 7.5207e-01 3.7925e-01
 7.6810e-02 1.7730e-02 1.7139e-02 4.7496e-04]
entropy correction =  -0.04198720067364329
cycle= 13 E= -12.7710503803828  delta_E= -2.39e-05  |g|= 0.00365  |ddm|= 0.0213
HOMO:  -0.2172534988756013 LUMO:  -0.21241053233173313
Fermi energy:      -0.2149141411
[2.0000e+00 2.0000e+00 2.0000e+00 2.0000e+00 1.9317e+00 1.8043e+00
 1.8041e+00 1.2332e+00 1.2298e+00 7.5474e-01 7.5066e-01 3.7952e-01
 7.6700e-02 1.7703e-02 1.7160e-02 4.7520e-04]
entropy correction =  -0.0419729579342632
cycle= 14 E= -12.7710595098318  delta_E= -9.13e-06  |g|= 0.00153  |ddm|= 0.00907
HOMO:  -0.21725081937103422 LUMO:  -0.2124007739886453
Fermi energy:      -0.2149076310
[2.0000e+00 2.0000e+00 2.0000e+00 2.0000e+00 1.9316e+00 1.8052e+00
 1.8022e+00 1.2332e+00 1.2301e+00 7.5444e-01 7.5164e-01 3.7947e-01
 7.6717e-02 1.7704e-02 1.7179e-02 4.7545e-04]
entropy correction =  -0.0419861016777881
cycle= 15 E= -12.7710603543511  delta_E= -8.45e-07  |g|= 0.00104  |ddm|= 0.00473
HOMO:  -0.21724969675284506 LUMO:  -0.21240093508140187
Fermi energy:      -0.2149086878
[2.0000e+00 2.0000e+00 2.0000e+00 2.0000e+00 1.9316e+00 1.8041e+00
 1.8032e+00 1.2334e+00 1.2299e+00 7.5435e-01 7.5179e-01 3.7948e-01
 7.6713e-02 1.7731e-02 1.7151e-02 4.7538e-04]
entropy correction =  -0.04198681440089327
cycle= 16 E= -12.7710611712936  delta_E= -8.17e-07  |g|= 0.000254  |ddm|= 0.00269
HOMO:  -0.2172508701357216 LUMO:  -0.2124038958337538
Fermi energy:      -0.2149090380
[2.0000e+00 2.0000e+00 2.0000e+00 2.0000e+00 1.9316e+00 1.8042e+00
 1.8030e+00 1.2334e+00 1.2300e+00 7.5460e-01 7.5173e-01 3.7947e-01
 7.6713e-02 1.7722e-02 1.7161e-02 4.7537e-04]
entropy correction =  -0.041989591347431805
cycle= 17 E= -12.7710612311876  delta_E= -5.99e-08  |g|= 4.4e-05  |ddm|= 0.000653
HOMO:  -0.2172532808538105 LUMO:  -0.21240681882260387
Fermi energy:      -0.2149115264
[2.0000e+00 2.0000e+00 2.0000e+00 2.0000e+00 1.9316e+00 1.8042e+00
 1.8029e+00 1.2333e+00 1.2300e+00 7.5464e-01 7.5178e-01 3.7946e-01
 7.6710e-02 1.7722e-02 1.7160e-02 4.7530e-04]
entropy correction =  -0.041990254047956414
cycle= 18 E= -12.771061231807  delta_E= -6.19e-10  |g|= 3.3e-05  |ddm|= 0.000179
HOMO:  -0.21725234771693006 LUMO:  -0.21240548547260588
Fermi energy:      -0.2149106115
[2.0000e+00 2.0000e+00 2.0000e+00 2.0000e+00 1.9316e+00 1.8042e+00
 1.8030e+00 1.2333e+00 1.2300e+00 7.5460e-01 7.5178e-01 3.7946e-01
 7.6709e-02 1.7722e-02 1.7160e-02 4.7532e-04]
entropy correction =  -0.04198951359005059
cycle= 19 E= -12.7710612325879  delta_E= -7.81e-10  |g|= 8.63e-06  |ddm|= 8.94e-05
HOMO:  -0.21725287504435203 LUMO:  -0.21240611388865202
Fermi energy:      -0.2149110500
[2.0000e+00 2.0000e+00 2.0000e+00 2.0000e+00 1.9316e+00 1.8042e+00
 1.8030e+00 1.2333e+00 1.2300e+00 7.5462e-01 7.5179e-01 3.7945e-01
 7.6709e-02 1.7722e-02 1.7160e-02 4.7531e-04]
entropy correction =  -0.04199001001845825
Extra cycle  E= -12.7710612298137  delta_E= 2.77e-09  |g|= 6.12e-05  |ddm|= 0.000116
degenerate subspace detected:
nsub = 2
subspace 1:
8, 9, 
subspace 2:
11, 12, 

 Adding contributions from fluctuation of occupation numbers.
degenerate subspace detected:
nsub = 3
subspace 1:
6, 7, 
subspace 2:
8, 9, 
subspace 3:
10, 11, 

 Adding contributions from fluctuation of occupation numbers.
entropy correction =  -0.04199001001845825
2-norm (grad),       max(grad):
0.052260566341645935 ,  0.004692278555787056
time of hessian construction : 29.780  (cpu),  0.854  (wall) 
time of hessian construction : 25.670  (cpu),  0.644  (wall) 
f =  0.001365583397174788
|umat| =  3.140017897564629
rks_ao.ne_frozen =  0
Set gradient conv threshold to 3.16228e-05
Initial guess from hcore.
HOMO:  -3.7348979121272485 LUMO:  -3.6021522175653917
Fermi energy:      -3.6685250915
[2. 2. 2. 2. 2. 2. 2. 2. 2.]
tot grids = 190200
init E= -33.931225116943
HOMO:  -0.5511887749235157 LUMO:  -0.4778127573662113
Fermi energy:      -0.5155489479
[2.0000e+00 2.0000e+00 2.0000e+00 2.0000e+00 2.0000e+00 2.0000e+00
 2.0000e+00 2.0000e+00 1.9984e+00 1.0546e-03 5.4874e-04]
entropy correction =  -0.00013548917609714224
cycle= 1 E= -35.3859063581664  delta_E= -1.45  |g|= 1.85  |ddm|=   32
HOMO:  -1.017295387529152 LUMO:  -0.9838805217427059
Fermi energy:      -1.0005961968
[2.0000e+00 2.0000e+00 2.0000e+00 2.0000e+00 2.0000e+00 2.0000e+00
 2.0000e+00 2.0000e+00 1.9315e+00 6.8241e-02 2.1764e-04]
entropy correction =  -0.0029903842069828658
cycle= 2 E= -35.8580565897553  delta_E= -0.472  |g|= 1.17  |ddm|= 17.1
HOMO:  -0.8335337039215086 LUMO:  -0.7704380336310982
Fermi energy:      -0.8025948653
[2.0000e+00 2.0000e+00 2.0000e+00 2.0000e+00 2.0000e+00 2.0000e+00
 2.0000e+00 2.0000e+00 1.9959e+00 3.2153e-03 8.8628e-04]
entropy correction =  -0.0003056088013777622
cycle= 3 E= -36.2991878649153  delta_E= -0.441  |g|= 0.282  |ddm|= 8.91
HOMO:  -0.817627781829611 LUMO:  -0.7781634601790639
Fermi energy:      -0.7980564610
[2.     2.     2.     2.     2.     2.     2.     2.     1.9609 0.0367
 0.0024]
entropy correction =  -0.001972100889373297
cycle= 4 E= -36.3205754949854  delta_E= -0.0214  |g|= 0.105  |ddm|= 1.09
HOMO:  -0.8343040030012516 LUMO:  -0.7917504209315225
Fermi energy:      -0.8131796019
[2.0000e+00 2.0000e+00 2.0000e+00 2.0000e+00 2.0000e+00 2.0000e+00
 2.0000e+00 2.0000e+00 1.9712e+00 2.7151e-02 1.6823e-03]
entropy correction =  -0.0015407780775601107
cycle= 5 E= -36.3240651494744  delta_E= -0.00349  |g|= 0.0398  |ddm|= 1.02
HOMO:  -0.833763172988017 LUMO:  -0.7928479226770546
Fermi energy:      -0.8134451573
[2.0000e+00 2.0000e+00 2.0000e+00 2.0000e+00 2.0000e+00 2.0000e+00
 2.0000e+00 2.0000e+00 1.9662e+00 3.1987e-02 1.8064e-03]
entropy correction =  -0.0017494650759154547
cycle= 6 E= -36.3246572564223  delta_E= -0.000592  |g|= 0.015  |ddm|= 0.306
HOMO:  -0.8342020870082196 LUMO:  -0.7934551064857053
Fermi energy:      -0.8139687677
[2.0000e+00 2.0000e+00 2.0000e+00 2.0000e+00 2.0000e+00 2.0000e+00
 2.0000e+00 2.0000e+00 1.9656e+00 3.2517e-02 1.8434e-03]
entropy correction =  -0.0017731644651051124
cycle= 7 E= -36.3247276467939  delta_E= -7.04e-05  |g|= 0.00296  |ddm|= 0.0884
HOMO:  -0.8340469743906527 LUMO:  -0.793403549255635
Fermi energy:      -0.8138634083
[2.0000e+00 2.0000e+00 2.0000e+00 2.0000e+00 2.0000e+00 2.0000e+00
 2.0000e+00 2.0000e+00 1.9653e+00 3.2863e-02 1.8351e-03]
entropy correction =  -0.0017867844953056075
cycle= 8 E= -36.3247300092625  delta_E= -2.36e-06  |g|= 0.000775  |ddm|= 0.019
HOMO:  -0.8340714599840323 LUMO:  -0.7934451998822736
Fermi energy:      -0.8138963639
[2.0000e+00 2.0000e+00 2.0000e+00 2.0000e+00 2.0000e+00 2.0000e+00
 2.0000e+00 2.0000e+00 1.9652e+00 3.2920e-02 1.8366e-03]
entropy correction =  -0.0017891558453932402
cycle= 9 E= -36.3247302263667  delta_E= -2.17e-07  |g|= 6.3e-05  |ddm|= 0.00689
HOMO:  -0.8340630984831653 LUMO:  -0.793435085302011
Fermi energy:      -0.8138872081
[2.0000e+00 2.0000e+00 2.0000e+00 2.0000e+00 2.0000e+00 2.0000e+00
 2.0000e+00 2.0000e+00 1.9652e+00 3.2914e-02 1.8374e-03]
entropy correction =  -0.001788946769218899
cycle= 10 E= -36.3247302284029  delta_E= -2.04e-09  |g|= 6.46e-06  |ddm|= 0.000783
HOMO:  -0.8340638408225183 LUMO:  -0.7934356676349423
Fermi energy:      -0.8138878596
[2.0000e+00 2.0000e+00 2.0000e+00 2.0000e+00 2.0000e+00 2.0000e+00
 2.0000e+00 2.0000e+00 1.9653e+00 3.2913e-02 1.8372e-03]
entropy correction =  -0.0017889190640488506
cycle= 11 E= -36.3247302284219  delta_E= -1.89e-11  |g|= 8.59e-07  |ddm|= 5.34e-05
HOMO:  -0.834063748847318 LUMO:  -0.7934356404370726
Fermi energy:      -0.8138878004
[2.0000e+00 2.0000e+00 2.0000e+00 2.0000e+00 2.0000e+00 2.0000e+00
 2.0000e+00 2.0000e+00 1.9652e+00 3.2913e-02 1.8373e-03]
entropy correction =  -0.0017889283993105308
Extra cycle  E= -36.3247302284216  delta_E= 2.42e-13  |g|= 7.52e-07  |ddm|= 1.2e-05
entropy correction =  -0.0017889283993105308
rks_ao.ne_frozen =  0
Set gradient conv threshold to 3.16228e-05
Initial guess from hcore.
HOMO:  -2.8080317829664634 LUMO:  -2.7906850907579566
Fermi energy:      -2.7993683583
[2.0000e+00 2.0000e+00 2.0000e+00 2.0000e+00 2.0000e+00 2.0000e+00
 2.0000e+00 1.9998e+00 1.6995e+00 2.9948e-01 1.2238e-03]
tot grids = 190200
init E= -36.7098698856537
HOMO:  -0.4915311311279602 LUMO:  -0.43754797333545425
Fermi energy:      -0.4645410706
[2.    2.    2.    2.    2.    2.    2.    2.    1.991 0.009]
entropy correction =  -0.0005769209451557286
cycle= 1 E= -37.8281636468422  delta_E= -1.12  |g|= 0.81  |ddm|= 17.8
HOMO:  -0.6226864440126813 LUMO:  -0.5954537795287353
Fermi energy:      -0.6090700927
[2.     2.     2.     2.     2.     2.     2.     2.     1.8768 0.1232]
entropy correction =  -0.004627799329316136
cycle= 2 E= -37.8273446038909  delta_E= 0.000819  |g|= 0.734  |ddm|= 6.97
HOMO:  -0.6182713716103413 LUMO:  -0.5559676578408603
Fermi energy:      -0.5871182508
[2.     2.     2.     2.     2.     2.     2.     2.     1.9961 0.0039]
entropy correction =  -0.00028431906302998206
cycle= 3 E= -37.9852489545965  delta_E= -0.158  |g|= 0.147  |ddm|= 3.95
HOMO:  -0.6041540750417645 LUMO:  -0.5526400406075098
Fermi energy:      -0.5783966000
[2.     2.     2.     2.     2.     2.     2.     2.     1.9885 0.0115]
entropy correction =  -0.0007088746148785263
cycle= 4 E= -37.9902442935427  delta_E= -0.005  |g|= 0.0378  |ddm|= 0.618
HOMO:  -0.6043172098079258 LUMO:  -0.5518737358814252
Fermi energy:      -0.5780949376
[2.     2.     2.     2.     2.     2.     2.     2.     1.9895 0.0105]
entropy correction =  -0.0006560432030853943
cycle= 5 E= -37.9905666898697  delta_E= -0.000322  |g|= 0.0197  |ddm|= 0.248
HOMO:  -0.604633452289504 LUMO:  -0.5522802799454664
Fermi energy:      -0.5784563545
[2.     2.     2.     2.     2.     2.     2.     2.     1.9894 0.0106]
entropy correction =  -0.0006610016274016598
cycle= 6 E= -37.9906975581775  delta_E= -0.000131  |g|= 0.00378  |ddm|= 0.113
HOMO:  -0.6047744093963453 LUMO:  -0.552469761862964
Fermi energy:      -0.5786215751
[2.     2.     2.     2.     2.     2.     2.     2.     1.9894 0.0106]
entropy correction =  -0.0006636842201443453
cycle= 7 E= -37.990703393645  delta_E= -5.84e-06  |g|= 0.000243  |ddm|= 0.0252
HOMO:  -0.6047675495844719 LUMO:  -0.5524858352665473
Fermi energy:      -0.5786261819
[2.     2.     2.     2.     2.     2.     2.     2.     1.9893 0.0107]
entropy correction =  -0.0006649558156972735
cycle= 8 E= -37.9907034193539  delta_E= -2.57e-08  |g|= 6.33e-05  |ddm|= 0.00227
HOMO:  -0.6047675180640363 LUMO:  -0.5524792636728144
Fermi energy:      -0.5786228806
[2.     2.     2.     2.     2.     2.     2.     2.     1.9893 0.0107]
entropy correction =  -0.0006645928839681404
cycle= 9 E= -37.9907034211831  delta_E= -1.83e-09  |g|= 1.19e-05  |ddm|= 0.000665
HOMO:  -0.6047675123610733 LUMO:  -0.5524798523922748
Fermi energy:      -0.5786231721
[2.     2.     2.     2.     2.     2.     2.     2.     1.9893 0.0107]
entropy correction =  -0.0006646258703675691
cycle= 10 E= -37.9907034212523  delta_E= -6.92e-11  |g|= 2.41e-06  |ddm|= 0.000134
HOMO:  -0.6047674644791362 LUMO:  -0.5524799184043162
Fermi energy:      -0.5786231811
[2.     2.     2.     2.     2.     2.     2.     2.     1.9893 0.0107]
entropy correction =  -0.0006646321851814702
Extra cycle  E= -37.9907034212516  delta_E= 7.11e-13  |g|= 2.77e-06  |ddm|= 4.06e-05
 Adding contributions from fluctuation of occupation numbers.
 Adding contributions from fluctuation of occupation numbers.
entropy correction =  -0.0006646321851814702
2-norm (grad),       max(grad):
330.15747781044945 ,  62.94029891925108
time of hessian construction : 13.740  (cpu),  0.344  (wall) 
time of hessian construction : 12.480  (cpu),  0.313  (wall) 
f =  54501.98007707871
|umat| =  2.73658592120841
rks_ao.ne_frozen =  0
Set gradient conv threshold to 3.16228e-05
Initial guess from hcore.
HOMO:  -3.5056541524277707 LUMO:  -3.311440700723168
Fermi energy:      -3.4068125039
[2. 2. 2. 2. 2. 2. 2. 2. 2.]
tot grids = 190200
init E= -10.1060214877911
HOMO:  -0.06725463340131058 LUMO:  -0.06707001244948468
Fermi energy:      -0.0713989056
[2.     2.     2.     2.     2.     2.     1.9948 1.9483 0.6078 0.5923
 0.4372 0.4196]
entropy correction =  -0.023985893473726306
cycle= 1 E= -10.1799103794025  delta_E= -0.0739  |g|= 2.77  |ddm|= 7.89
HOMO:  -0.7814042113040455 LUMO:  -0.6512057283939457
Fermi energy:      -0.7149578538
[2. 2. 2. 2. 2. 2. 2. 2. 2.]
entropy correction =  -9.611091103863906e-07
cycle= 2 E= -11.5125440974977  delta_E= -1.33  |g|= 2.04  |ddm|= 6.51
HOMO:  -0.4510544430156032 LUMO:  -0.41820176603179243
Fermi energy:      -0.4352603659
[2.0000e+00 2.0000e+00 2.0000e+00 2.0000e+00 1.9997e+00 1.9971e+00
 1.9970e+00 1.9190e+00 1.9185e+00 6.3862e-02 6.2711e-02 2.4560e-02
 1.6914e-02 6.6700e-04]
entropy correction =  -0.00762378625703165
cycle= 3 E= -13.2261755289205  delta_E= -1.71  |g|= 0.549  |ddm|= 3.83
HOMO:  -0.3659491705180212 LUMO:  -0.3653535434829454
Fermi energy:      -0.3681044548
[2.0000e+00 1.9993e+00 1.9970e+00 1.9965e+00 1.9766e+00 1.9752e+00
 1.8993e+00 1.2556e+00 7.8775e-01 7.3164e-01 5.9879e-01 5.5588e-01
 2.2640e-01 1.9214e-04]
entropy correction =  -0.03900362614851126
cycle= 4 E= -13.3593773279624  delta_E= -0.133  |g|= 0.212  |ddm|= 1.67
HOMO:  -0.3688550953711189 LUMO:  -0.36317068959143123
Fermi energy:      -0.3678223917
[2.0000e+00 1.9999e+00 1.9990e+00 1.9988e+00 1.9842e+00 1.9790e+00
 1.9513e+00 1.4293e+00 1.1029e+00 5.6571e-01 4.7997e-01 4.3543e-01
 7.4346e-02 1.6054e-04]
entropy correction =  -0.03345025691906989
cycle= 5 E= -13.0117264067342  delta_E= 0.348  |g|= 0.741  |ddm|= 1.39
HOMO:  -0.3734470611473424 LUMO:  -0.3689818717992673
Fermi energy:      -0.3718075001
[2.0000e+00 1.9999e+00 1.9978e+00 1.9962e+00 1.9729e+00 1.9688e+00
 1.9601e+00 1.1729e+00 1.1625e+00 7.2472e-01 4.8316e-01 4.7473e-01
 8.6057e-02 2.0272e-04]
entropy correction =  -0.03565228418118955
cycle= 6 E= -13.3820050479305  delta_E= -0.37  |g|= 0.133  |ddm|= 1.05
HOMO:  -0.37163417968338125 LUMO:  -0.3707838206377298
Fermi energy:      -0.3710511233
[2.0000e+00 1.9995e+00 1.9972e+00 1.9897e+00 1.9766e+00 1.9524e+00
 1.9239e+00 1.2226e+00 1.0582e+00 9.7328e-01 5.6000e-01 2.8201e-01
 6.4294e-02 2.2122e-04]
entropy correction =  -0.03578191079480389
cycle= 7 E= -13.3659240837892  delta_E= 0.0161  |g|= 0.166  |ddm|= 0.603
HOMO:  -0.3698988836734103 LUMO:  -0.36734664056175903
Fermi energy:      -0.3694352186
[2.0000e+00 1.9993e+00 1.9939e+00 1.9922e+00 1.9614e+00 1.9529e+00
 1.9406e+00 1.1702e+00 1.0463e+00 7.9413e-01 5.4267e-01 5.2571e-01
 8.0332e-02 2.3919e-04]
entropy correction =  -0.03762467259114044
cycle= 8 E= -13.3924507659569  delta_E= -0.0265  |g|= 0.0635  |ddm|= 0.509
HOMO:  -0.36758788270418125 LUMO:  -0.3655306676881236
Fermi energy:      -0.3671428584
[2.0000e+00 1.9992e+00 1.9930e+00 1.9903e+00 1.9624e+00 1.9553e+00
 1.9421e+00 1.0654e+00 1.0445e+00 8.4016e-01 5.6840e-01 5.5449e-01
 8.4659e-02 2.3226e-04]
entropy correction =  -0.03816263378548409
cycle= 9 E= -13.3866023834714  delta_E= 0.00585  |g|= 0.114  |ddm|= 0.277
HOMO:  -0.3643359715808036 LUMO:  -0.3637641482705713
Fermi energy:      -0.3649632676
[2.0000e+00 1.9992e+00 1.9910e+00 1.9881e+00 1.9632e+00 1.9620e+00
 1.9406e+00 1.0296e+00 9.3735e-01 8.8066e-01 6.2613e-01 5.9045e-01
 9.1485e-02 2.2700e-04]
entropy correction =  -0.03873553362582879
cycle= 10 E= -13.3933793326672  delta_E= -0.00678  |g|= 0.0546  |ddm|= 0.238
HOMO:  -0.36412478174438073 LUMO:  -0.36360368735936366
Fermi energy:      -0.3645838057
[2.0000e+00 1.9992e+00 1.9909e+00 1.9892e+00 1.9631e+00 1.9610e+00
 1.9431e+00 9.9295e-01 9.5413e-01 9.0230e-01 6.1398e-01 5.9490e-01
 9.4932e-02 2.2464e-04]
entropy correction =  -0.03874378939419759
cycle= 11 E= -13.3936167261171  delta_E= -0.000237  |g|= 0.0565  |ddm|= 0.156
HOMO:  -0.36431854277005576 LUMO:  -0.36352522536176707
Fermi energy:      -0.3646563366
[2.0000e+00 1.9993e+00 1.9913e+00 1.9894e+00 1.9630e+00 1.9614e+00
 1.9450e+00 9.9065e-01 9.6623e-01 8.8737e-01 6.0958e-01 6.0241e-01
 9.4202e-02 2.2674e-04]
entropy correction =  -0.03868042828368941
cycle= 12 E= -13.395650999776  delta_E= -0.00203  |g|= 0.0151  |ddm|= 0.118
HOMO:  -0.36568926226682263 LUMO:  -0.36431394737717215
Fermi energy:      -0.3656403668
[2.0000e+00 1.9993e+00 1.9921e+00 1.9905e+00 1.9613e+00 1.9598e+00
 1.9435e+00 1.0094e+00 1.0049e+00 8.6813e-01 5.9218e-01 5.8636e-01
 9.2342e-02 2.3164e-04]
entropy correction =  -0.03853122702471364
cycle= 13 E= -13.3958652373999  delta_E= -0.000214  |g|= 0.00266  |ddm|= 0.0474
HOMO:  -0.36571404669589974 LUMO:  -0.36433902143690566
Fermi energy:      -0.3656744877
[2.0000e+00 1.9993e+00 1.9920e+00 1.9903e+00 1.9615e+00 1.9601e+00
 1.9441e+00 1.0071e+00 1.0040e+00 8.6724e-01 5.9376e-01 5.8832e-01
 9.2097e-02 2.3067e-04]
entropy correction =  -0.038529505227448725
cycle= 14 E= -13.3958691908239  delta_E= -3.95e-06  |g|= 0.00161  |ddm|= 0.00882
HOMO:  -0.365753631616225 LUMO:  -0.36437542352119273
Fermi energy:      -0.3657123601
[2.0000e+00 1.9993e+00 1.9919e+00 1.9904e+00 1.9617e+00 1.9598e+00
 1.9440e+00 1.0072e+00 1.0041e+00 8.6710e-01 5.9417e-01 5.8801e-01
 9.2042e-02 2.3074e-04]
entropy correction =  -0.0385313866329475
cycle= 15 E= -13.3958692173075  delta_E= -2.65e-08  |g|= 0.00142  |ddm|= 0.00607
HOMO:  -0.3657253442700817 LUMO:  -0.36435440115387807
Fermi energy:      -0.3656848614
[2.0000e+00 1.9993e+00 1.9920e+00 1.9903e+00 1.9615e+00 1.9601e+00
 1.9439e+00 1.0060e+00 1.0040e+00 8.6773e-01 5.9352e-01 5.8927e-01
 9.2114e-02 2.3080e-04]
entropy correction =  -0.03853795092272041
cycle= 16 E= -13.3958666302637  delta_E= 2.59e-06  |g|= 0.0023  |ddm|= 0.0075
HOMO:  -0.36574556401004277 LUMO:  -0.3643695821109242
Fermi energy:      -0.3657000914
[2.0000e+00 1.9993e+00 1.9920e+00 1.9903e+00 1.9615e+00 1.9600e+00
 1.9438e+00 1.0063e+00 1.0045e+00 8.6773e-01 5.9380e-01 5.8843e-01
 9.2129e-02 2.3102e-04]
entropy correction =  -0.03853940302555979
cycle= 17 E= -13.395871216152  delta_E= -4.59e-06  |g|= 0.000377  |ddm|= 0.00508
HOMO:  -0.3657349995829848 LUMO:  -0.36436300973417446
Fermi energy:      -0.3656940987
[2.0000e+00 1.9993e+00 1.9920e+00 1.9903e+00 1.9615e+00 1.9600e+00
 1.9439e+00 1.0065e+00 1.0041e+00 8.6767e-01 5.9399e-01 5.8841e-01
 9.2126e-02 2.3088e-04]
entropy correction =  -0.03853753243539506
cycle= 18 E= -13.3958712774292  delta_E= -6.13e-08  |g|= 0.000276  |ddm|= 0.00131
HOMO:  -0.36571420391533715 LUMO:  -0.3643536769892749
Fermi energy:      -0.3656815434
[2.0000e+00 1.9993e+00 1.9919e+00 1.9903e+00 1.9615e+00 1.9600e+00
 1.9438e+00 1.0066e+00 1.0033e+00 8.6799e-01 5.9426e-01 5.8858e-01
 9.2155e-02 2.3091e-04]
entropy correction =  -0.03854134585297285
cycle= 19 E= -13.3958712213802  delta_E= 5.6e-08  |g|= 0.000369  |ddm|= 0.00135
HOMO:  -0.36571853645782687 LUMO:  -0.36435354288547844
Fermi energy:      -0.3656809944
[2.0000e+00 1.9993e+00 1.9919e+00 1.9903e+00 1.9615e+00 1.9600e+00
 1.9438e+00 1.0061e+00 1.0038e+00 8.6803e-01 5.9412e-01 5.8866e-01
 9.2166e-02 2.3090e-04]
entropy correction =  -0.038541253214659704
cycle= 20 E= -13.3958707264776  delta_E= 4.95e-07  |g|= 0.000934  |ddm|= 0.00182
HOMO:  -0.36572105435704133 LUMO:  -0.36435417875277754
Fermi energy:      -0.3656821957
[2.0000e+00 1.9993e+00 1.9919e+00 1.9903e+00 1.9615e+00 1.9600e+00
 1.9439e+00 1.0061e+00 1.0039e+00 8.6797e-01 5.9405e-01 5.8867e-01
 9.2162e-02 2.3088e-04]
entropy correction =  -0.03854033507457865
cycle= 21 E= -13.3958713205481  delta_E= -5.94e-07  |g|= 0.000182  |ddm|= 0.00146
HOMO:  -0.3657205189692836 LUMO:  -0.36435489451595493
Fermi energy:      -0.3656829549
[2.0000e+00 1.9993e+00 1.9919e+00 1.9903e+00 1.9615e+00 1.9600e+00
 1.9439e+00 1.0062e+00 1.0038e+00 8.6797e-01 5.9408e-01 5.8862e-01
 9.2162e-02 2.3089e-04]
entropy correction =  -0.03854040135750158
cycle= 22 E= -13.3958713448946  delta_E= -2.43e-08  |g|= 4.67e-05  |ddm|= 0.000411
HOMO:  -0.3657246049642248 LUMO:  -0.36435718420279195
Fermi energy:      -0.3656861009
[2.0000e+00 1.9993e+00 1.9920e+00 1.9903e+00 1.9615e+00 1.9600e+00
 1.9439e+00 1.0063e+00 1.0039e+00 8.6789e-01 5.9402e-01 5.8856e-01
 9.2154e-02 2.3088e-04]
entropy correction =  -0.03853935245790518
cycle= 23 E= -13.3958713426844  delta_E= 2.21e-09  |g|= 6.9e-05  |ddm|= 0.000198
HOMO:  -0.36572597356887804 LUMO:  -0.36435803970704717
Fermi energy:      -0.3656870501
[2.0000e+00 1.9993e+00 1.9919e+00 1.9903e+00 1.9615e+00 1.9600e+00
 1.9439e+00 1.0063e+00 1.0039e+00 8.6788e-01 5.9403e-01 5.8852e-01
 9.2153e-02 2.3089e-04]
entropy correction =  -0.03853937654505132
cycle= 24 E= -13.3958713378182  delta_E= 4.87e-09  |g|= 9.76e-05  |ddm|= 0.000315
HOMO:  -0.3657244288918878 LUMO:  -0.3643570645590727
Fermi energy:      -0.3656858127
[2.0000e+00 1.9993e+00 1.9919e+00 1.9903e+00 1.9615e+00 1.9600e+00
 1.9439e+00 1.0063e+00 1.0039e+00 8.6790e-01 5.9403e-01 5.8857e-01
 9.2155e-02 2.3089e-04]
entropy correction =  -0.03853974426491773
cycle= 25 E= -13.3958713456386  delta_E= -7.82e-09  |g|= 3.4e-05  |ddm|= 0.000265
HOMO:  -0.3657254838296024 LUMO:  -0.3643578296624271
Fermi energy:      -0.3656866941
[2.0000e+00 1.9993e+00 1.9919e+00 1.9903e+00 1.9615e+00 1.9600e+00
 1.9439e+00 1.0063e+00 1.0039e+00 8.6789e-01 5.9403e-01 5.8854e-01
 9.2154e-02 2.3090e-04]
entropy correction =  -0.03853968147678765
cycle= 26 E= -13.3958713460714  delta_E= -4.33e-10  |g|= 2.37e-05  |ddm|= 0.000122
HOMO:  -0.3657236628247847 LUMO:  -0.3643562002643147
Fermi energy:      -0.3656849733
[2.0000e+00 1.9993e+00 1.9919e+00 1.9903e+00 1.9615e+00 1.9600e+00
 1.9439e+00 1.0063e+00 1.0039e+00 8.6790e-01 5.9403e-01 5.8861e-01
 9.2154e-02 2.3088e-04]
entropy correction =  -0.038539706162978075
Extra cycle  E= -13.3958713088079  delta_E= 3.73e-08  |g|= 0.000223  |ddm|= 0.000435
entropy correction =  -0.038539706162978075
rks_ao.ne_frozen =  0
Set gradient conv threshold to 3.16228e-05
Initial guess from hcore.
HOMO:  -2.569563300347654 LUMO:  -2.56926418132758
Fermi energy:      -2.5700938965
[2.0000e+00 2.0000e+00 2.0000e+00 2.0000e+00 2.0000e+00 2.0000e+00
 2.0000e+00 1.9978e+00 9.4699e-01 9.1722e-01 6.4691e-02 6.2799e-02
 5.0186e-03 4.7276e-03 7.5964e-04]
tot grids = 190200
init E= -9.70257018864444
HOMO:  0.02016810202478374 LUMO:  0.022931946479056095
Fermi energy:       0.0201308863
[2.     2.     2.     2.     2.     2.     1.9952 1.3437 0.9963 0.727
 0.4091 0.2244 0.1141 0.0918 0.0461 0.0379 0.0084 0.0032 0.0027]
entropy correction =  -0.03513987531623372
cycle= 1 E= -10.979149638244  delta_E= -1.28  |g|= 2.09  |ddm|= 9.47
HOMO:  -0.4498500518214807 LUMO:  -0.44217473498703286
Fermi energy:      -0.4451832250
[2.0000e+00 2.0000e+00 2.0000e+00 2.0000e+00 2.0000e+00 2.0000e+00
 1.9992e+00 1.4984e+00 1.4355e+00 7.0791e-01 1.7218e-01 1.5580e-01
 2.8891e-02 1.9481e-03]
entropy correction =  -0.024628417982575496
cycle= 2 E= -11.037186261608  delta_E= -0.058  |g|= 2.13  |ddm|= 9.27
HOMO:  -0.29482570128566127 LUMO:  -0.28144371556290265
Fermi energy:      -0.2868851159
[2.     2.     2.     2.     1.9961 1.9816 1.9726 1.6885 1.6607 0.5039
 0.0729 0.0647 0.0512 0.004  0.0037]
entropy correction =  -0.02037585460340458
cycle= 3 E= -12.3063198129908  delta_E= -1.27  |g|= 0.864  |ddm|= 1.85
HOMO:  -0.2568883896257807 LUMO:  -0.2539667798000711
Fermi energy:      -0.2553773124
[2.0000e+00 2.0000e+00 2.0000e+00 2.0000e+00 1.9991e+00 1.9524e+00
 1.9021e+00 1.7081e+00 1.1500e+00 8.5987e-01 1.7997e-01 1.6922e-01
 7.6479e-02 1.8798e-03 8.1603e-04 1.4011e-04]
entropy correction =  -0.028592564146604778
cycle= 4 E= -11.5092439815104  delta_E= 0.797  |g|=  1.3  |ddm|= 2.15
HOMO:  -0.23668762364028373 LUMO:  -0.2304506366621787
Fermi energy:      -0.2341193770
[2.0000e+00 2.0000e+00 2.0000e+00 2.0000e+00 1.9699e+00 1.9341e+00
 1.8533e+00 1.3040e+00 1.2513e+00 6.4875e-01 6.3170e-01 2.9895e-01
 6.8557e-02 2.4782e-02 1.4185e-02 3.6493e-04]
entropy correction =  -0.03728076586192459
cycle= 5 E= -12.7583925234529  delta_E= -1.25  |g|= 0.122  |ddm|= 2.07
HOMO:  -0.21574329104887038 LUMO:  -0.2143042028242137
Fermi energy:      -0.2147370242
[2.0000e+00 2.0000e+00 2.0000e+00 2.0000e+00 1.9574e+00 1.9385e+00
 1.7559e+00 1.5007e+00 1.1003e+00 9.5674e-01 4.1713e-01 2.4485e-01
 9.7414e-02 1.7714e-02 1.2883e-02 4.0276e-04]
entropy correction =  -0.03723533158841095
cycle= 6 E= -12.5597091741448  delta_E= 0.199  |g|= 0.52  |ddm|= 1.33
HOMO:  -0.21673132935860565 LUMO:  -0.21214294913201948
Fermi energy:      -0.2141578762
[2.0000e+00 2.0000e+00 2.0000e+00 2.0000e+00 1.9302e+00 1.7740e+00
 1.7420e+00 1.2846e+00 1.2518e+00 8.0119e-01 7.4383e-01 3.5193e-01
 8.3294e-02 2.0714e-02 1.5920e-02 5.2859e-04]
entropy correction =  -0.042798750051707926
cycle= 7 E= -12.7614475708153  delta_E= -0.202  |g|= 0.106  |ddm|= 0.969
HOMO:  -0.2171541552125208 LUMO:  -0.21298980545327212
Fermi energy:      -0.2147543172
[2.0000e+00 2.0000e+00 2.0000e+00 2.0000e+00 1.9347e+00 1.8482e+00
 1.7018e+00 1.2495e+00 1.2355e+00 8.2536e-01 7.1521e-01 3.7449e-01
 7.9675e-02 1.8268e-02 1.6918e-02 4.8388e-04]
entropy correction =  -0.042430773864947806
cycle= 8 E= -12.7626892240878  delta_E= -0.00124  |g|= 0.104  |ddm|= 0.291
HOMO:  -0.21710740063170617 LUMO:  -0.21226193769356053
Fermi energy:      -0.2147514389
[2.0000e+00 2.0000e+00 2.0000e+00 2.0000e+00 1.9329e+00 1.7971e+00
 1.7915e+00 1.2417e+00 1.2313e+00 7.5607e-01 7.5485e-01 3.8176e-01
 7.7623e-02 1.7820e-02 1.6858e-02 4.8021e-04]
entropy correction =  -0.042185324599400234
cycle= 9 E= -12.7681445597917  delta_E= -0.00546  |g|= 0.0621  |ddm|= 0.231
HOMO:  -0.21606772043454547 LUMO:  -0.21123245877623126
Fermi energy:      -0.2137439384
[2.0000e+00 2.0000e+00 2.0000e+00 2.0000e+00 1.9308e+00 1.8197e+00
 1.7993e+00 1.2332e+00 1.2283e+00 7.5400e-01 7.3819e-01 3.8339e-01
 7.7813e-02 1.7869e-02 1.6987e-02 4.9563e-04]
entropy correction =  -0.04188285700702345
cycle= 10 E= -12.7705222275426  delta_E= -0.00238  |g|= 0.0257  |ddm|= 0.119
HOMO:  -0.2170644890583106 LUMO:  -0.21219786031675242
Fermi energy:      -0.2147039205
[2.0000e+00 2.0000e+00 2.0000e+00 2.0000e+00 1.9314e+00 1.8089e+00
 1.7983e+00 1.2368e+00 1.2318e+00 7.5451e-01 7.4657e-01 3.7930e-01
 7.6943e-02 1.7780e-02 1.7159e-02 4.7870e-04]
entropy correction =  -0.04196913339287797
cycle= 11 E= -12.7706676696554  delta_E= -0.000145  |g|= 0.0232  |ddm|= 0.0787
HOMO:  -0.2172228758430055 LUMO:  -0.2124526587435218
Fermi energy:      -0.2148822437
[2.0000e+00 2.0000e+00 2.0000e+00 2.0000e+00 1.9316e+00 1.8070e+00
 1.7961e+00 1.2339e+00 1.2299e+00 7.6171e-01 7.4872e-01 3.7882e-01
 7.6943e-02 1.7759e-02 1.7162e-02 4.7485e-04]
entropy correction =  -0.042043530993298724
cycle= 12 E= -12.7710263462389  delta_E= -0.000359  |g|= 0.00671  |ddm|= 0.0489
HOMO:  -0.2172313078998719 LUMO:  -0.21239262625085076
Fermi energy:      -0.2148971280
[2.0000e+00 2.0000e+00 2.0000e+00 2.0000e+00 1.9317e+00 1.8068e+00
 1.8006e+00 1.2335e+00 1.2293e+00 7.5466e-01 7.5207e-01 3.7925e-01
 7.6810e-02 1.7730e-02 1.7139e-02 4.7495e-04]
entropy correction =  -0.04198729206372051
cycle= 13 E= -12.7710503287301  delta_E= -2.4e-05  |g|= 0.00366  |ddm|= 0.0213
HOMO:  -0.2172534720195118 LUMO:  -0.21241051342033354
Fermi energy:      -0.2149141213
[2.0000e+00 2.0000e+00 2.0000e+00 2.0000e+00 1.9317e+00 1.8043e+00
 1.8041e+00 1.2332e+00 1.2298e+00 7.5474e-01 7.5066e-01 3.7952e-01
 7.6700e-02 1.7703e-02 1.7160e-02 4.7520e-04]
entropy correction =  -0.04197284883112071
cycle= 14 E= -12.7710594803763  delta_E= -9.15e-06  |g|= 0.00153  |ddm|= 0.00908
HOMO:  -0.21725082107087418 LUMO:  -0.2124007659169613
Fermi energy:      -0.2149076238
[2.0000e+00 2.0000e+00 2.0000e+00 2.0000e+00 1.9316e+00 1.8052e+00
 1.8022e+00 1.2332e+00 1.2301e+00 7.5444e-01 7.5163e-01 3.7947e-01
 7.6717e-02 1.7704e-02 1.7179e-02 4.7545e-04]
entropy correction =  -0.04198604756193158
cycle= 15 E= -12.7710603239721  delta_E= -8.44e-07  |g|= 0.00104  |ddm|= 0.00474
HOMO:  -0.21724970103487315 LUMO:  -0.21240092779267258
Fermi energy:      -0.2149086805
[2.0000e+00 2.0000e+00 2.0000e+00 2.0000e+00 1.9316e+00 1.8041e+00
 1.8032e+00 1.2334e+00 1.2299e+00 7.5435e-01 7.5179e-01 3.7948e-01
 7.6713e-02 1.7731e-02 1.7151e-02 4.7538e-04]
entropy correction =  -0.04198680890321306
cycle= 16 E= -12.7710611476139  delta_E= -8.24e-07  |g|= 0.000252  |ddm|= 0.0027
HOMO:  -0.2172508916313639 LUMO:  -0.21240391423711819
Fermi energy:      -0.2149090505
[2.0000e+00 2.0000e+00 2.0000e+00 2.0000e+00 1.9316e+00 1.8042e+00
 1.8030e+00 1.2334e+00 1.2300e+00 7.5460e-01 7.5173e-01 3.7947e-01
 7.6713e-02 1.7722e-02 1.7161e-02 4.7537e-04]
entropy correction =  -0.04198960399338456
cycle= 17 E= -12.7710612068525  delta_E= -5.92e-08  |g|= 4.38e-05  |ddm|= 0.00065
HOMO:  -0.2172532978777248 LUMO:  -0.21240682441800232
Fermi energy:      -0.2149115352
[2.0000e+00 2.0000e+00 2.0000e+00 2.0000e+00 1.9316e+00 1.8042e+00
 1.8029e+00 1.2333e+00 1.2300e+00 7.5464e-01 7.5178e-01 3.7946e-01
 7.6710e-02 1.7722e-02 1.7160e-02 4.7530e-04]
entropy correction =  -0.0419902600356075
cycle= 18 E= -12.7710612074708  delta_E= -6.18e-10  |g|= 3.28e-05  |ddm|= 0.000177
HOMO:  -0.21725230164748918 LUMO:  -0.21240545103713904
Fermi energy:      -0.2149105595
[2.0000e+00 2.0000e+00 2.0000e+00 2.0000e+00 1.9316e+00 1.8042e+00
[...]
 8.7677e-02 2.3187e-04]
entropy correction =  -0.038262711791631036
cycle= 9 E= -13.397444199268  delta_E= -0.00274  |g|= 0.016  |ddm|= 0.0995
HOMO:  -0.36595610402522166 LUMO:  -0.36453564748365047
Fermi energy:      -0.3658944046
[2.0000e+00 1.9992e+00 1.9912e+00 1.9894e+00 1.9611e+00 1.9601e+00
 1.9398e+00 1.0178e+00 1.0062e+00 8.6495e-01 5.9425e-01 5.8536e-01
 9.0393e-02 2.3091e-04]
entropy correction =  -0.0386185136948114
cycle= 10 E= -13.397619667614  delta_E= -0.000175  |g|= 0.00898  |ddm|= 0.0536
HOMO:  -0.36564889713083876 LUMO:  -0.36439654241294533
Fermi energy:      -0.3656631686
[2.0000e+00 1.9992e+00 1.9910e+00 1.9891e+00 1.9614e+00 1.9606e+00
 1.9395e+00 1.0059e+00 9.9857e-01 8.7401e-01 5.9881e-01 5.9010e-01
 9.1636e-02 2.3030e-04]
entropy correction =  -0.03869688683206499
cycle= 11 E= -13.3976339655474  delta_E= -1.43e-05  |g|= 0.0086  |ddm|= 0.0309
HOMO:  -0.3652722502532117 LUMO:  -0.3641827817176042
Fermi energy:      -0.3654071285
[2.0000e+00 1.9992e+00 1.9910e+00 1.9887e+00 1.9619e+00 1.9607e+00
 1.9394e+00 1.0054e+00 9.8651e-01 8.7817e-01 6.0149e-01 5.9506e-01
 9.2223e-02 2.3106e-04]
entropy correction =  -0.03874212782528768
cycle= 12 E= -13.3975946594685  delta_E= 3.93e-05  |g|= 0.00886  |ddm|= 0.0367
HOMO:  -0.36568231068877355 LUMO:  -0.36435251630708226
Fermi energy:      -0.3656527387
[2.0000e+00 1.9992e+00 1.9911e+00 1.9893e+00 1.9615e+00 1.9605e+00
 1.9399e+00 1.0059e+00 1.0030e+00 8.7071e-01 5.9703e-01 5.9016e-01
 9.1580e-02 2.3124e-04]
entropy correction =  -0.03866901050848685
cycle= 13 E= -13.3976813145908  delta_E= -8.67e-05  |g|= 0.00183  |ddm|= 0.028
HOMO:  -0.365710291792041 LUMO:  -0.36438068138625707
Fermi energy:      -0.3656850386
[2.0000e+00 1.9992e+00 1.9912e+00 1.9893e+00 1.9615e+00 1.9603e+00
 1.9398e+00 1.0081e+00 1.0025e+00 8.7030e-01 5.9703e-01 5.8905e-01
 9.1547e-02 2.3155e-04]
entropy correction =  -0.03866727640788426
cycle= 14 E= -13.3976586410476  delta_E= 2.27e-05  |g|= 0.00595  |ddm|= 0.0127
HOMO:  -0.3656637469957224 LUMO:  -0.3643412783080786
Fermi energy:      -0.3656378297
[2.0000e+00 1.9992e+00 1.9911e+00 1.9892e+00 1.9615e+00 1.9606e+00
 1.9400e+00 1.0049e+00 1.0026e+00 8.7107e-01 5.9777e-01 5.9028e-01
 9.1621e-02 2.3110e-04]
entropy correction =  -0.038672341301998106
cycle= 15 E= -13.3976846378812  delta_E= -2.6e-05  |g|= 0.000436  |ddm|= 0.00966
HOMO:  -0.3657036388327793 LUMO:  -0.3643675350750588
Fermi energy:      -0.3656676341
[2.0000e+00 1.9992e+00 1.9911e+00 1.9893e+00 1.9612e+00 1.9607e+00
 1.9399e+00 1.0055e+00 1.0036e+00 8.7072e-01 5.9785e-01 5.8917e-01
 9.1584e-02 2.3134e-04]
entropy correction =  -0.038669591701028655
cycle= 16 E= -13.3976828890606  delta_E= 1.75e-06  |g|= 0.00137  |ddm|= 0.0044
HOMO:  -0.3657090527121123 LUMO:  -0.36437144341006755
Fermi energy:      -0.3656722972
[2.0000e+00 1.9992e+00 1.9911e+00 1.9893e+00 1.9614e+00 1.9605e+00
 1.9398e+00 1.0056e+00 1.0037e+00 8.7064e-01 5.9718e-01 5.8974e-01
 9.1578e-02 2.3143e-04]
entropy correction =  -0.038670404403136474
cycle= 17 E= -13.3976845884835  delta_E= -1.7e-06  |g|= 0.000566  |ddm|= 0.00408
HOMO:  -0.3657508843929582 LUMO:  -0.36439382160981143
Fermi energy:      -0.3657020560
[2.0000e+00 1.9992e+00 1.9912e+00 1.9893e+00 1.9614e+00 1.9605e+00
 1.9399e+00 1.0063e+00 1.0049e+00 8.6992e-01 5.9665e-01 5.8913e-01
 9.1518e-02 2.3137e-04]
entropy correction =  -0.03866111459688392
cycle= 18 E= -13.3976841378625  delta_E= 4.51e-07  |g|= 0.000942  |ddm|= 0.00254
HOMO:  -0.36571312733413386 LUMO:  -0.3643709980951286
Fermi energy:      -0.3656741282
[2.0000e+00 1.9992e+00 1.9911e+00 1.9893e+00 1.9614e+00 1.9605e+00
 1.9399e+00 1.0056e+00 1.0039e+00 8.7042e-01 5.9724e-01 5.8967e-01
 9.1550e-02 2.3136e-04]
entropy correction =  -0.03866794502854148
cycle= 19 E= -13.3976848290466  delta_E= -6.91e-07  |g|= 6.69e-05  |ddm|= 0.00189
HOMO:  -0.36571195157505126 LUMO:  -0.3643700707130525
Fermi energy:      -0.3656731201
[2.0000e+00 1.9992e+00 1.9911e+00 1.9893e+00 1.9614e+00 1.9605e+00
 1.9399e+00 1.0055e+00 1.0039e+00 8.7043e-01 5.9725e-01 5.8969e-01
 9.1552e-02 2.3134e-04]
entropy correction =  -0.038667850033541645
cycle= 20 E= -13.3976848321039  delta_E= -3.06e-09  |g|= 2.64e-05  |ddm|= 0.000154
HOMO:  -0.36571007575786896 LUMO:  -0.3643691216162821
Fermi energy:      -0.3656717375
[2.0000e+00 1.9992e+00 1.9911e+00 1.9893e+00 1.9614e+00 1.9605e+00
 1.9399e+00 1.0055e+00 1.0038e+00 8.7047e-01 5.9727e-01 5.8971e-01
 9.1557e-02 2.3134e-04]
entropy correction =  -0.038668201431801615
cycle= 21 E= -13.3976848326296  delta_E= -5.26e-10  |g|= 2.23e-06  |ddm|= 6.63e-05
HOMO:  -0.3657099548106205 LUMO:  -0.36436897529541
Fermi energy:      -0.3656715810
[2.0000e+00 1.9992e+00 1.9911e+00 1.9893e+00 1.9614e+00 1.9605e+00
 1.9399e+00 1.0055e+00 1.0038e+00 8.7047e-01 5.9727e-01 5.8971e-01
 9.1557e-02 2.3134e-04]
entropy correction =  -0.038668228636287
Extra cycle  E= -13.3976848325036  delta_E= 1.26e-10  |g|= 1.24e-05  |ddm|= 3.49e-05
entropy correction =  -0.038668228636287
rks_ao.ne_frozen =  0
Set gradient conv threshold to 3.16228e-05
tot grids = 190200
init E= -9.11813510836153
HOMO:  -0.18105407011234756 LUMO:  -0.1702186056866814
Fermi energy:      -0.1741765481
[2.0000e+00 2.0000e+00 2.0000e+00 2.0000e+00 1.9140e+00 1.8498e+00
 1.8483e+00 1.5971e+00 1.5965e+00 6.2366e-01 4.2754e-01 6.1658e-02
 5.8847e-02 1.1163e-02 1.0974e-02 4.2399e-04]
entropy correction =  -0.031981010932198614
cycle= 1 E= -12.4363598244873  delta_E= -3.32  |g|= 0.773  |ddm|= 5.23
HOMO:  -0.1330021331706253 LUMO:  -0.12992612052910985
Fermi energy:      -0.1289988733
[2.0000e+00 2.0000e+00 2.0000e+00 2.0000e+00 2.0000e+00 2.0000e+00
 1.9814e+00 1.3906e+00 1.3802e+00 1.0925e+00 5.2400e-02 4.9842e-02
 3.2699e-02 1.0174e-02 7.6923e-03 1.0055e-03 5.9812e-04 5.2020e-04
 2.8373e-04]
entropy correction =  -0.023647688037988956
cycle= 2 E= -12.3649335784457  delta_E= 0.0714  |g|= 0.979  |ddm|= 2.87
HOMO:  -0.21638796237775193 LUMO:  -0.20815344760768387
Fermi energy:      -0.2131686142
[2.0000e+00 2.0000e+00 2.0000e+00 2.0000e+00 1.9897e+00 1.9893e+00
 1.9676e+00 1.3118e+00 1.3113e+00 5.3669e-01 3.8741e-01 3.8414e-01
 8.7879e-02 1.7075e-02 1.6572e-02 4.7604e-04]
entropy correction =  -0.03277904602890277
cycle= 3 E= -12.7419391111282  delta_E= -0.377  |g|= 0.234  |ddm|= 1.35
HOMO:  -0.21760051631337093 LUMO:  -0.21289115367635827
Fermi energy:      -0.2153700448
[2.0000e+00 2.0000e+00 2.0000e+00 2.0000e+00 1.9303e+00 1.8316e+00
 1.8119e+00 1.2222e+00 1.2194e+00 7.5707e-01 7.4852e-01 3.5945e-01
 8.5998e-02 1.7078e-02 1.6128e-02 3.6358e-04]
entropy correction =  -0.04159771007407656
cycle= 4 E= -12.7678384829995  delta_E= -0.0259  |g|= 0.073  |ddm|= 0.549
HOMO:  -0.2177799077056402 LUMO:  -0.21310631420754486
Fermi energy:      -0.2154025287
[2.0000e+00 2.0000e+00 2.0000e+00 2.0000e+00 1.9367e+00 1.8114e+00
 1.7927e+00 1.2397e+00 1.2334e+00 7.7433e-01 7.1589e-01 3.8389e-01
 8.1836e-02 1.5582e-02 1.4284e-02 3.4965e-04]
entropy correction =  -0.04184890030597332
cycle= 5 E= -12.7503864793608  delta_E= 0.0175  |g|= 0.17  |ddm|= 0.355
HOMO:  -0.21732830315504756 LUMO:  -0.2126493165589606
Fermi energy:      -0.2150879712
[2.0000e+00 2.0000e+00 2.0000e+00 2.0000e+00 1.9342e+00 1.8205e+00
 1.7993e+00 1.2233e+00 1.2204e+00 7.6086e-01 7.4357e-01 3.8579e-01
 7.8667e-02 1.7067e-02 1.6144e-02 3.4181e-04]
entropy correction =  -0.041873862822449724
cycle= 6 E= -12.7720972075874  delta_E= -0.0217  |g|= 0.0154  |ddm|= 0.264
HOMO:  -0.21711053264633864 LUMO:  -0.2123782628027797
Fermi energy:      -0.2147888663
[2.0000e+00 2.0000e+00 2.0000e+00 2.0000e+00 1.9322e+00 1.8297e+00
 1.7829e+00 1.2366e+00 1.2281e+00 7.6350e-01 7.3503e-01 3.7865e-01
 7.8979e-02 1.7550e-02 1.6483e-02 3.5687e-04]
entropy correction =  -0.041883717982440775
cycle= 7 E= -12.7718605577462  delta_E= 0.000237  |g|= 0.026  |ddm|= 0.0916
HOMO:  -0.2171922116808293 LUMO:  -0.21229521994749453
Fermi energy:      -0.2148335509
[2.0000e+00 2.0000e+00 2.0000e+00 2.0000e+00 1.9319e+00 1.8116e+00
 1.8019e+00 1.2333e+00 1.2316e+00 7.5148e-01 7.4696e-01 3.7786e-01
 7.9005e-02 1.7296e-02 1.6724e-02 3.5810e-04]
entropy correction =  -0.04188968293468067
cycle= 8 E= -12.7723588119311  delta_E= -0.000498  |g|= 0.00787  |ddm|= 0.0696
HOMO:  -0.21729736806784508 LUMO:  -0.21243864618169572
Fermi energy:      -0.2149372513
[2.0000e+00 2.0000e+00 2.0000e+00 2.0000e+00 1.9319e+00 1.8119e+00
 1.7999e+00 1.2322e+00 1.2317e+00 7.5521e-01 7.4709e-01 3.7688e-01
 7.8841e-02 1.7308e-02 1.6635e-02 3.5614e-04]
entropy correction =  -0.041908144883907254
cycle= 9 E= -12.7723354144318  delta_E= 2.34e-05  |g|= 0.00968  |ddm|= 0.0194
HOMO:  -0.21741201882896458 LUMO:  -0.21258417431121768
Fermi energy:      -0.2150663678
[2.0000e+00 2.0000e+00 2.0000e+00 2.0000e+00 1.9320e+00 1.8059e+00
 1.8030e+00 1.2324e+00 1.2304e+00 7.5676e-01 7.5108e-01 3.7568e-01
 7.8628e-02 1.7302e-02 1.6562e-02 3.5368e-04]
entropy correction =  -0.04194327311424417
cycle= 10 E= -12.7724063164559  delta_E= -7.09e-05  |g|= 0.00159  |ddm|= 0.0177
HOMO:  -0.21741390350313708 LUMO:  -0.21256054334297989
Fermi energy:      -0.2150639357
[2.0000e+00 2.0000e+00 2.0000e+00 2.0000e+00 1.9320e+00 1.8052e+00
 1.8038e+00 1.2316e+00 1.2308e+00 7.5476e-01 7.5349e-01 3.7560e-01
 7.8594e-02 1.7214e-02 1.6628e-02 3.5344e-04]
entropy correction =  -0.04194228854810507
cycle= 11 E= -12.7724079657865  delta_E= -1.65e-06  |g|= 0.00119  |ddm|= 0.00585
HOMO:  -0.21740201028581463 LUMO:  -0.2125421381844806
Fermi energy:      -0.2150502014
[2.0000e+00 2.0000e+00 2.0000e+00 2.0000e+00 1.9320e+00 1.8051e+00
 1.8037e+00 1.2317e+00 1.2309e+00 7.5432e-01 7.5361e-01 3.7576e-01
 7.8584e-02 1.7205e-02 1.6645e-02 3.5345e-04]
entropy correction =  -0.041942802683962846
cycle= 12 E= -12.7724073102628  delta_E= 6.56e-07  |g|= 0.00148  |ddm|= 0.00483
HOMO:  -0.21738082073432421 LUMO:  -0.21252247916902955
Fermi energy:      -0.2150304915
[2.0000e+00 2.0000e+00 2.0000e+00 2.0000e+00 1.9320e+00 1.8058e+00
 1.8042e+00 1.2317e+00 1.2308e+00 7.5433e-01 7.5258e-01 3.7578e-01
 7.8571e-02 1.7228e-02 1.6619e-02 3.5381e-04]
entropy correction =  -0.0419282328380537
cycle= 13 E= -12.772409006831  delta_E= -1.7e-06  |g|= 7.54e-05  |ddm|= 0.0033
HOMO:  -0.21738034436425427 LUMO:  -0.2125215505045906
Fermi energy:      -0.2150293797
[2.0000e+00 2.0000e+00 2.0000e+00 2.0000e+00 1.9320e+00 1.8057e+00
 1.8041e+00 1.2318e+00 1.2309e+00 7.5435e-01 7.5263e-01 3.7579e-01
 7.8558e-02 1.7230e-02 1.6619e-02 3.5375e-04]
entropy correction =  -0.041929878891219685
cycle= 14 E= -12.7724090105191  delta_E= -3.69e-09  |g|= 3.55e-05  |ddm|= 0.000261
HOMO:  -0.21738087213820606 LUMO:  -0.21252234417845
Fermi energy:      -0.2150299645
[2.0000e+00 2.0000e+00 2.0000e+00 2.0000e+00 1.9320e+00 1.8057e+00
 1.8041e+00 1.2318e+00 1.2309e+00 7.5437e-01 7.5263e-01 3.7578e-01
 7.8558e-02 1.7230e-02 1.6620e-02 3.5374e-04]
entropy correction =  -0.041929965286066524
cycle= 15 E= -12.7724090116381  delta_E= -1.12e-09  |g|= 7.15e-06  |ddm|= 0.000108
HOMO:  -0.2173815617621196 LUMO:  -0.21252303138629466
Fermi energy:      -0.2150307651
[2.0000e+00 2.0000e+00 2.0000e+00 2.0000e+00 1.9320e+00 1.8057e+00
 1.8041e+00 1.2318e+00 1.2308e+00 7.5435e-01 7.5266e-01 3.7577e-01
 7.8558e-02 1.7230e-02 1.6619e-02 3.5373e-04]
entropy correction =  -0.04192980919472102
cycle= 16 E= -12.7724090107418  delta_E= 8.96e-10  |g|= 3.42e-05  |ddm|= 8.08e-05
HOMO:  -0.21738148166195623 LUMO:  -0.2125231185139973
Fermi energy:      -0.2150306943
[2.0000e+00 2.0000e+00 2.0000e+00 2.0000e+00 1.9320e+00 1.8057e+00
 1.8041e+00 1.2318e+00 1.2308e+00 7.5437e-01 7.5264e-01 3.7577e-01
 7.8558e-02 1.7230e-02 1.6619e-02 3.5373e-04]
entropy correction =  -0.04192984670799613
cycle= 17 E= -12.7724090116309  delta_E= -8.89e-10  |g|= 8.34e-06  |ddm|= 7.52e-05
HOMO:  -0.21738122287833644 LUMO:  -0.21252257668187993
Fermi energy:      -0.2150303340
[2.0000e+00 2.0000e+00 2.0000e+00 2.0000e+00 1.9320e+00 1.8057e+00
 1.8041e+00 1.2318e+00 1.2309e+00 7.5435e-01 7.5265e-01 3.7577e-01
 7.8558e-02 1.7230e-02 1.6619e-02 3.5374e-04]
entropy correction =  -0.041929808383444636
Extra cycle  E= -12.7724090092872  delta_E= 2.34e-09  |g|= 5.52e-05  |ddm|= 0.000121
entropy correction =  -0.041929808383444636
scf energies:
EA (no vemb contrib.) =  -34.78918660373735
EB (no vemb contrib.) =  -24.94831256676589
W =  -59.63911630268321
P_imp change (scf - non-scf):  0.012088097283962596
P_bath change (scf - non-scf):  0.009728829304676482
|P_frag + P_env - P_ref| =  0.07172265110401599
max element of (P_frag + P_env - P_ref) =  0.004363237536109572
mo orthogonality:
[[-1.9008e-05  1.2596e-05  1.2340e-05  1.0249e-02  5.4187e-06  2.0160e-04
  -3.3971e-05  4.4871e-05  5.0890e-06  4.5480e-04 -1.2967e-04  6.6691e-05
   2.8375e-01  3.3318e-04 -4.6533e-04  5.0772e-01 -2.0010e-04  1.4414e-03
   3.2694e-04]
 [-3.5653e-05  1.5045e-05 -8.2719e-03 -1.6944e-05  4.1031e-06 -4.2733e-06
   1.0145e-05  2.3966e-04 -9.9007e-05 -5.8322e-05 -7.9878e-05  2.4824e-01
   2.6846e-05  1.1878e-04  4.6114e-05  2.9760e-04  1.3057e-03  8.1902e-03
   8.3288e-03]
 [ 1.0294e-04  1.4646e-03  8.6349e-05  2.9668e-05  1.9478e-05 -3.4950e-05
   4.3688e-05  1.9188e-02  9.4802e-03  1.6245e-04 -2.0234e-04 -2.1787e-03
  -7.0476e-04  2.2332e-03 -3.1219e-04 -5.5793e-04  2.3192e-02  7.2141e-01
  -7.8035e-02]
 [ 1.4529e-03  2.5708e-04 -4.9763e-05  2.3168e-05 -2.7227e-05 -1.7219e-05
  -1.3814e-04 -9.8438e-03  1.8412e-02 -1.0307e-04  3.1520e-04  1.4750e-03
   4.7549e-03 -4.1161e-03  4.0412e-04 -2.0870e-03 -1.6933e-02 -6.6844e-02
  -8.1590e-01]
 [ 3.6739e-05 -1.2716e-05 -8.4682e-06 -2.1363e-05  5.3925e-05 -6.9640e-03
  -2.0860e-02  9.7465e-05 -2.7432e-05  2.7030e-02  6.7192e-02  2.4144e-06
  -5.6174e-04 -8.5592e-01 -3.6192e-01  4.4751e-04  5.2633e-04  1.6718e-03
   2.1627e-03]
 [ 2.1748e-05 -6.8652e-05 -5.1710e-06 -1.5397e-04  3.3843e-05  2.0618e-02
  -7.0057e-03  1.9878e-05 -5.7391e-05 -6.7505e-02  2.6905e-02 -4.3396e-05
   1.4228e-03 -3.6179e-01  8.5521e-01  4.8578e-04  1.4896e-03  1.6939e-03
   2.2156e-03]
 [-8.1574e-05  3.4975e-05 -2.9262e-05 -5.5233e-03 -1.8461e-06  7.5860e-05
  -1.2282e-05 -4.7540e-05  1.1590e-04 -4.7849e-04  4.6343e-05 -2.3027e-04
  -8.1288e-01  2.1218e-04  1.1585e-03  4.4757e-01 -3.6059e-04 -5.8106e-04
  -4.5246e-03]
 [ 1.7970e-05  1.0843e-05 -9.9604e-06 -1.4101e-04 -6.2046e-05 -1.9842e-01
  -2.0793e-02 -2.8836e-04  1.3550e-05 -9.6360e-01 -4.7117e-02 -1.2778e-04
   4.8982e-04 -1.9709e-03 -7.3313e-02 -8.7105e-06  4.9911e-04 -3.6903e-05
   8.6834e-05]
 [-3.2113e-05  2.8843e-06 -6.9399e-05 -1.1006e-04 -3.9010e-05 -2.0674e-02
   1.9734e-01  1.3955e-04  3.9109e-05 -4.7122e-02  9.6388e-01 -1.9200e-04
   7.0629e-05  7.2716e-02 -2.3750e-03 -5.7243e-05 -1.1840e-04 -1.6212e-04
   1.4009e-04]
 [-3.2249e-04  1.1786e-04  5.8193e-02  1.0687e-05 -8.2863e-06  1.1357e-05
   7.3282e-05  3.9828e-04  2.6513e-04 -1.2565e-04  2.2281e-04  9.3651e-01
  -3.3009e-04 -1.7253e-05 -2.3698e-06 -1.2689e-04 -1.5808e-04 -2.5500e-04
  -9.6169e-04]
 [-2.8491e-02 -1.2779e-02 -4.1019e-05 -5.4899e-05 -4.7753e-05 -8.6579e-05
   9.2507e-05 -1.0450e-01  9.6672e-01  6.1903e-05 -4.3597e-05 -1.8379e-04
  -2.3799e-05  4.1470e-05  1.2938e-04 -8.7365e-05  9.1873e-04 -1.1408e-03
   1.6184e-02]
 [ 1.2848e-02 -2.8994e-02  7.3859e-05 -6.6682e-05 -1.0308e-04 -1.5727e-05
   4.4655e-05  9.6718e-01  1.0450e-01 -2.6591e-04 -1.7963e-04 -3.8862e-04
  -1.8949e-05  6.2349e-06 -3.3094e-05 -2.9700e-05 -7.2181e-04 -4.9293e-03
  -4.4286e-03]
 [-2.6102e-04  2.1468e-04 -7.1918e-04  7.8301e-01  2.1578e-04 -3.1960e-05
  -3.0477e-04  1.1867e-04  1.0079e-04 -5.4256e-05  2.2401e-04  1.6029e-04
   2.3688e-01  1.8632e-04 -4.2272e-04  3.3372e-01 -2.8590e-04  3.0732e-04
   6.5115e-05]
 [ 2.3492e-03  4.5736e-04  3.8221e-06  2.6657e-04 -9.5811e-01  3.8003e-05
  -3.4118e-04 -2.1948e-04  1.9792e-04  5.9818e-05  4.0927e-05 -7.5741e-06
  -1.4782e-05 -9.0328e-05  1.6640e-04 -1.1269e-05 -1.5387e-04 -2.6042e-04
   1.0965e-04]]
|P_imp-P_imp_0| =  0.012088097283962596
max(P_imp-P_imp_0) =  0.0007227229365084145
|P_bath-P_bath_0| =  0.009728829304676482
max(P_bath-P_bath_0) =  0.0010743009214836743

At iterate   53    f=   1.322340854689E-03    |proj g|=  2.567121227E-03

At iterate   54    f=   1.322253595328E-03    |proj g|=  1.676815246E-03

At iterate   55    f=   1.321805393759E-03    |proj g|=  3.914324975E-03

At iterate   56    f=   1.320959083645E-03    |proj g|=  3.056519367E-03

At iterate   57    f=   1.320117107656E-03    |proj g|=  2.766346285E-03

At iterate   58    f=   1.318815243813E-03    |proj g|=  3.748406122E-03

At iterate   59    f=   1.318228970105E-03    |proj g|=  1.947653068E-03

At iterate   60    f=   1.317471295849E-03    |proj g|=  2.475843771E-03

At iterate   61    f=   1.316716386810E-03    |proj g|=  2.003268087E-03

At iterate   62    f=   1.315996440345E-03    |proj g|=  2.469548176E-03

At iterate   63    f=   1.315250770515E-03    |proj g|=  5.212840013E-03

At iterate   64    f=   1.313671845744E-03    |proj g|=  3.548555283E-03

At iterate   65    f=   1.313415835060E-03    |proj g|=  1.847188244E-03

At iterate   66    f=   1.313113289277E-03    |proj g|=  1.887350257E-03

At iterate   67    f=   1.311956223628E-03    |proj g|=  4.145776419E-03

At iterate   68    f=   1.311205658390E-03    |proj g|=  1.975592637E-03

At iterate   69    f=   1.310762918287E-03    |proj g|=  1.361159688E-03

At iterate   70    f=   1.309918850084E-03    |proj g|=  1.907645347E-03

At iterate   71    f=   1.309503241649E-03    |proj g|=  5.395074666E-03

At iterate   72    f=   1.308609160673E-03    |proj g|=  2.588859283E-03

At iterate   73    f=   1.308089993654E-03    |proj g|=  1.986585778E-03

At iterate   74    f=   1.307562274337E-03    |proj g|=  2.749244824E-03

At iterate   75    f=   1.307000088074E-03    |proj g|=  2.468721498E-03

At iterate   76    f=   1.306565972900E-03    |proj g|=  3.904338480E-03

At iterate   77    f=   1.306258562625E-03    |proj g|=  2.758937196E-03

At iterate   78    f=   1.305976003188E-03    |proj g|=  2.013024929E-03

At iterate   79    f=   1.305525916968E-03    |proj g|=  1.960752086E-03

At iterate   80    f=   1.304851730572E-03    |proj g|=  1.906327001E-03

At iterate   81    f=   1.303945205509E-03    |proj g|=  1.463284173E-03

At iterate   82    f=   1.303315179257E-03    |proj g|=  2.571323794E-03

At iterate   83    f=   1.302643819325E-03    |proj g|=  1.890107546E-03

At iterate   84    f=   1.302303758439E-03    |proj g|=  1.523034019E-03

At iterate   85    f=   1.302033088758E-03    |proj g|=  1.917588378E-03

At iterate   86    f=   1.301905040118E-03    |proj g|=  1.808427549E-03

At iterate   87    f=   1.301860816896E-03    |proj g|=  1.758730060E-03

At iterate   88    f=   1.301836875948E-03    |proj g|=  1.994769958E-03

At iterate   89    f=   1.301830838543E-03    |proj g|=  1.960330928E-03

At iterate   90    f=   1.301819053942E-03    |proj g|=  1.918744237E-03

At iterate   91    f=   1.301812815387E-03    |proj g|=  1.874423101E-03

At iterate   92    f=   1.301804380426E-03    |proj g|=  1.795090886E-03

At iterate   93    f=   1.301794096877E-03    |proj g|=  1.757149978E-03

At iterate   94    f=   1.301767607697E-03    |proj g|=  1.833729267E-03

At iterate   95    f=   1.301767607697E-03    |proj g|=  1.833729266E-03

           * * *

Tit   = total number of iterations
Tnf   = total number of function evaluations
Tnint = total number of segments explored during Cauchy searches
Skip  = number of BFGS updates skipped
Nact  = number of active bounds at final generalized Cauchy point
Projg = norm of the final projected gradient
F     = final function value

           * * *

   N    Tit     Tnf  Tnint  Skip  Nact     Projg        F
 4656     95    172      2     1     0   1.834D-03   1.302D-03
  F =   1.3017676076972598E-003

CONVERGENCE: REL_REDUCTION_OF_F_<=_FACTR*EPSMCH             

 Cauchy                time 0.000E+00 seconds.
 Subspace minimization time 0.000E+00 seconds.
 Line search           time 0.000E+00 seconds.

 Total User time 0.000E+00 seconds.

