[Molden Format]
made by pyscf v[1.4]
[Atoms] (AU)
H   1   1     2.14034876928242     0.00000000000000     0.00000000000000
H   2   1     1.73157852823898     1.25806544134655     0.00000000000000
H   3   1     0.66140414359777     2.03559264417036     0.00000000000000
H   4   1    -0.66140414359777     2.03559264417036     0.00000000000000
H   5   1    -1.73157852823898     1.25806544134655     0.00000000000000
H   6   1    -2.14034876928242     0.00000000000000     0.00000000000000
H   7   1    -1.73157852823898    -1.25806544134655     0.00000000000000
H   8   1    -0.66140414359777    -2.03559264417036     0.00000000000000
H   9   1     0.66140414359777    -2.03559264417036     0.00000000000000
H   10   1     1.73157852823898    -1.25806544134655     0.00000000000000
[GTO]
1 0
 s    6 1.00
           35.52322122  0.0091635962807908
           6.513143725    0.04936149294426
           1.822142904    0.16853830491455
           0.625955266    0.37056279973198
           0.243076747    0.41649152983594
           0.100112428    0.13033408411125

2 0
 s    6 1.00
           35.52322122  0.0091635962807908
           6.513143725    0.04936149294426
           1.822142904    0.16853830491455
           0.625955266    0.37056279973198
           0.243076747    0.41649152983594
           0.100112428    0.13033408411125

3 0
 s    6 1.00
           35.52322122  0.0091635962807908
           6.513143725    0.04936149294426
           1.822142904    0.16853830491455
           0.625955266    0.37056279973198
           0.243076747    0.41649152983594
           0.100112428    0.13033408411125

4 0
 s    6 1.00
           35.52322122  0.0091635962807908
           6.513143725    0.04936149294426
           1.822142904    0.16853830491455
           0.625955266    0.37056279973198
           0.243076747    0.41649152983594
           0.100112428    0.13033408411125

5 0
 s    6 1.00
           35.52322122  0.0091635962807908
           6.513143725    0.04936149294426
           1.822142904    0.16853830491455
           0.625955266    0.37056279973198
           0.243076747    0.41649152983594
           0.100112428    0.13033408411125

6 0
 s    6 1.00
           35.52322122  0.0091635962807908
           6.513143725    0.04936149294426
           1.822142904    0.16853830491455
           0.625955266    0.37056279973198
           0.243076747    0.41649152983594
           0.100112428    0.13033408411125

7 0
 s    6 1.00
           35.52322122  0.0091635962807908
           6.513143725    0.04936149294426
           1.822142904    0.16853830491455
           0.625955266    0.37056279973198
           0.243076747    0.41649152983594
           0.100112428    0.13033408411125

8 0
 s    6 1.00
           35.52322122  0.0091635962807908
           6.513143725    0.04936149294426
           1.822142904    0.16853830491455
           0.625955266    0.37056279973198
           0.243076747    0.41649152983594
           0.100112428    0.13033408411125

9 0
 s    6 1.00
           35.52322122  0.0091635962807908
           6.513143725    0.04936149294426
           1.822142904    0.16853830491455
           0.625955266    0.37056279973198
           0.243076747    0.41649152983594
           0.100112428    0.13033408411125

10 0
 s    6 1.00
           35.52322122  0.0091635962807908
           6.513143725    0.04936149294426
           1.822142904    0.16853830491455
           0.625955266    0.37056279973198
           0.243076747    0.41649152983594
           0.100112428    0.13033408411125

[5d]
[9g]


[MO]
 Sym= A
 Ene=               0
 Spin= Alpha
 Occup=    1.00000
   1       1.7534376016487
   2     -0.72190681824876
   3      0.15628668739822
   4    -0.051498817886572
   5    0.0099602562176644
   6    -0.011999246690863
   7    0.0099602562176642
   8    -0.051498817886571
   9      0.15628668739822
  10     -0.72190681824876
 Sym= A
 Ene=               1
 Spin= Alpha
 Occup=    1.00000
   1     -0.72190681824876
   2       1.7534376016487
   3     -0.72190681824876
   4      0.15628668739822
   5    -0.051498817886572
   6    0.0099602562176642
   7    -0.011999246690864
   8    0.0099602562176648
   9    -0.051498817886572
  10      0.15628668739822
 Sym= A
 Ene=               2
 Spin= Alpha
 Occup=    1.00000
   1      0.15628668739822
   2     -0.72190681824876
   3       1.7534376016487
   4     -0.72190681824876
   5      0.15628668739822
   6    -0.051498817886572
   7    0.0099602562176651
   8    -0.011999246690865
   9    0.0099602562176659
  10    -0.051498817886572
 Sym= A
 Ene=               3
 Spin= Alpha
 Occup=    1.00000
   1    -0.051498817886572
   2      0.15628668739822
   3     -0.72190681824876
   4       1.7534376016487
   5     -0.72190681824876
   6      0.15628668739822
   7    -0.051498817886571
   8    0.0099602562176652
   9    -0.011999246690864
  10    0.0099602562176646
 Sym= A
 Ene=               4
 Spin= Alpha
 Occup=    1.00000
   1    0.0099602562176644
   2    -0.051498817886572
   3      0.15628668739822
   4     -0.72190681824876
   5       1.7534376016487
   6     -0.72190681824876
   7      0.15628668739822
   8    -0.051498817886572
   9    0.0099602562176644
  10    -0.011999246690864
 Sym= A
 Ene=               5
 Spin= Alpha
 Occup=    0.00000
   1    -0.011999246690863
   2    0.0099602562176642
   3    -0.051498817886572
   4      0.15628668739822
   5     -0.72190681824876
   6       1.7534376016487
   7     -0.72190681824876
   8      0.15628668739822
   9    -0.051498817886572
  10    0.0099602562176643
 Sym= A
 Ene=               6
 Spin= Alpha
 Occup=    0.00000
   1    0.0099602562176642
   2    -0.011999246690864
   3    0.0099602562176648
   4    -0.051498817886571
   5      0.15628668739822
   6     -0.72190681824876
   7       1.7534376016487
   8     -0.72190681824876
   9      0.15628668739822
  10    -0.051498817886572
 Sym= A
 Ene=               7
 Spin= Alpha
 Occup=    0.00000
   1    -0.051498817886571
   2    0.0099602562176648
   3    -0.011999246690864
   4    0.0099602562176651
   5    -0.051498817886572
   6      0.15628668739822
   7     -0.72190681824876
   8       1.7534376016487
   9     -0.72190681824876
  10      0.15628668739822
 Sym= A
 Ene=               8
 Spin= Alpha
 Occup=    0.00000
   1      0.15628668739822
   2    -0.051498817886572
   3    0.0099602562176658
   4    -0.011999246690864
   5    0.0099602562176645
   6    -0.051498817886572
   7      0.15628668739822
   8     -0.72190681824876
   9       1.7534376016487
  10     -0.72190681824876
 Sym= A
 Ene=               9
 Spin= Alpha
 Occup=    0.00000
   1     -0.72190681824876
   2      0.15628668739822
   3    -0.051498817886572
   4    0.0099602562176646
   5    -0.011999246690864
   6    0.0099602562176644
   7    -0.051498817886572
   8      0.15628668739822
   9     -0.72190681824876
  10       1.7534376016487
