[Molden Format]
made by pyscf v[1.4]
[Atoms] (AU)
H   1   1     2.14034876928242     0.00000000000000     0.00000000000000
H   2   1     1.73157852823898     1.25806544134655     0.00000000000000
H   3   1     0.66140414359777     2.03559264417036     0.00000000000000
H   4   1    -0.66140414359777     2.03559264417036     0.00000000000000
H   5   1    -1.73157852823898     1.25806544134655     0.00000000000000
H   6   1    -2.14034876928242     0.00000000000000     0.00000000000000
H   7   1    -1.73157852823898    -1.25806544134655     0.00000000000000
H   8   1    -0.66140414359777    -2.03559264417036     0.00000000000000
H   9   1     0.66140414359777    -2.03559264417036     0.00000000000000
H   10   1     1.73157852823898    -1.25806544134655     0.00000000000000
[GTO]
1 0
 s    6 1.00
           35.52322122  0.0091635962807908
           6.513143725    0.04936149294426
           1.822142904    0.16853830491455
           0.625955266    0.37056279973198
           0.243076747    0.41649152983594
           0.100112428    0.13033408411125

2 0
 s    6 1.00
           35.52322122  0.0091635962807908
           6.513143725    0.04936149294426
           1.822142904    0.16853830491455
           0.625955266    0.37056279973198
           0.243076747    0.41649152983594
           0.100112428    0.13033408411125

3 0
 s    6 1.00
           35.52322122  0.0091635962807908
           6.513143725    0.04936149294426
           1.822142904    0.16853830491455
           0.625955266    0.37056279973198
           0.243076747    0.41649152983594
           0.100112428    0.13033408411125

4 0
 s    6 1.00
           35.52322122  0.0091635962807908
           6.513143725    0.04936149294426
           1.822142904    0.16853830491455
           0.625955266    0.37056279973198
           0.243076747    0.41649152983594
           0.100112428    0.13033408411125

5 0
 s    6 1.00
           35.52322122  0.0091635962807908
           6.513143725    0.04936149294426
           1.822142904    0.16853830491455
           0.625955266    0.37056279973198
           0.243076747    0.41649152983594
           0.100112428    0.13033408411125

6 0
 s    6 1.00
           35.52322122  0.0091635962807908
           6.513143725    0.04936149294426
           1.822142904    0.16853830491455
           0.625955266    0.37056279973198
           0.243076747    0.41649152983594
           0.100112428    0.13033408411125

7 0
 s    6 1.00
           35.52322122  0.0091635962807908
           6.513143725    0.04936149294426
           1.822142904    0.16853830491455
           0.625955266    0.37056279973198
           0.243076747    0.41649152983594
           0.100112428    0.13033408411125

8 0
 s    6 1.00
           35.52322122  0.0091635962807908
           6.513143725    0.04936149294426
           1.822142904    0.16853830491455
           0.625955266    0.37056279973198
           0.243076747    0.41649152983594
           0.100112428    0.13033408411125

9 0
 s    6 1.00
           35.52322122  0.0091635962807908
           6.513143725    0.04936149294426
           1.822142904    0.16853830491455
           0.625955266    0.37056279973198
           0.243076747    0.41649152983594
           0.100112428    0.13033408411125

10 0
 s    6 1.00
           35.52322122  0.0091635962807908
           6.513143725    0.04936149294426
           1.822142904    0.16853830491455
           0.625955266    0.37056279973198
           0.243076747    0.41649152983594
           0.100112428    0.13033408411125

[5d]
[9g]


[MO]
 Sym= A
 Ene=               0
 Spin= Alpha
 Occup=    1.00000
   1       0.1666902867381
   2       0.1666902867381
   3       0.1666902867381
   4       0.1666902867381
   5       0.1666902867381
   6       0.1666902867381
   7       0.1666902867381
   8       0.1666902867381
   9       0.1666902867381
  10       0.1666902867381
 Sym= A
 Ene=               1
 Spin= Alpha
 Occup=    1.00000
   1     -0.15798349442529
   2     0.033981713129171
   3      0.21296706126424
   4      0.31060623048055
   5      0.28960437677077
   6      0.15798349442529
   7    -0.033981713129172
   8     -0.21296706126424
   9     -0.31060623048055
  10     -0.28960437677077
 Sym= A
 Ene=               2
 Spin= Alpha
 Occup=    1.00000
   1     -0.27525876894486
   2     -0.31554939005594
   3     -0.23531086929494
   4    -0.065191594385564
   5      0.12982865379831
   6      0.27525876894487
   7      0.31554939005594
   8      0.23531086929495
   9     0.065191594385563
  10     -0.12982865379831
 Sym= A
 Ene=               3
 Spin= Alpha
 Occup=    1.00000
   1     -0.38324094380136
   2      0.19607886073842
   3      0.50442434421307
   4      0.11567252873813
   5     -0.43293478988826
   6     -0.38324094380136
   7      0.19607886073843
   8      0.50442434421306
   9      0.11567252873813
  10     -0.43293478988825
 Sym= A
 Ene=               4
 Spin= Alpha
 Occup=    1.00000
   1     -0.33069204608208
   2     -0.46667325905738
   3     0.042272110343935
   4      0.49279886002611
   5       0.2622943347694
   6     -0.33069204608208
   7     -0.46667325905738
   8     0.042272110343934
   9      0.49279886002612
  10       0.2622943347694
 Sym= A
 Ene=               5
 Spin= Alpha
 Occup=    0.00000
   1     -0.15109007620952
   2      0.83395457327454
   3     -0.36432219514756
   4     -0.60879107381738
   5      0.74057577081425
   6      0.15109007620951
   7     -0.83395457327454
   8      0.36432219514757
   9      0.60879107381737
  10     -0.74057577081425
 Sym= A
 Ene=               6
 Spin= Alpha
 Occup=    0.00000
   1     -0.82777958886311
   2      0.11210275902882
   3      0.75849627355067
   4     -0.58087923642327
   5     -0.39949316208201
   6      0.82777958886312
   7     -0.11210275902882
   8     -0.75849627355067
   9      0.58087923642328
  10      0.39949316208199
 Sym= A
 Ene=               7
 Spin= Alpha
 Occup=    0.00000
   1      0.70315451942803
   2     0.089799028140965
   3     -0.84845239911682
   4       1.2830257914664
   5      -1.2275269399186
   6      0.70315451942804
   7     0.089799028140947
   8     -0.84845239911679
   9       1.2830257914664
  10      -1.2275269399186
 Sym= A
 Ene=               8
 Spin= Alpha
 Occup=    0.00000
   1       -1.120584399593
   2       1.3198756795048
   3      -1.0150193107701
   4      0.32246006455873
   5      0.49326796629959
   6       -1.120584399593
   7       1.3198756795048
   8      -1.0150193107701
   9      0.32246006455874
  10      0.49326796629958
 Sym= A
 Ene=               9
 Spin= Alpha
 Occup=    0.00000
   1       1.1525686228476
   2      -1.1525686228476
   3       1.1525686228476
   4      -1.1525686228476
   5       1.1525686228476
   6      -1.1525686228476
   7       1.1525686228476
   8      -1.1525686228476
   9       1.1525686228476
  10      -1.1525686228476
