#INFO: **** input file is /tigress/xingz/pydmfet/examples/research/diradical/C20.py ****
from pydmfet import locints, sdmfet,oep,tools,dfet_ao,proj_ao
from pydmfet.qcwrap.pyscf_rks_ao import rks_ao
from pyscf import gto, scf, ao2mo
import numpy as np
from pyscf.tools import molden, cubegen
import time
from pydmfet import dfet_ao
from pydmfet.dfet_ao import dfet

bas ='ccpvdz'
temp = 0.005


mol = gto.Mole()
mol.atom = open('C20.xyz').read()
mol.basis = bas
mol.charge = 0
mol.build(max_memory = 4000, verbose=4)


#mf = scf.RHF(mol)
mf = rks_ao(mol,smear_sigma = temp)
mf.xc = "pbe,pbe"
mf.max_cycle = 50

DMguess = None
mf.scf(dm0=DMguess)

natoms = mol.natm
impAtom = np.zeros([natoms], dtype=int)
for i in range(11):
    impAtom[i] = 1


embed = proj_ao.proj_embed(mf,impAtom, Ne_env = 46)
#embed.lo_method = 'boys'
embed.pop_method = 'meta_lowdin'
embed.pm_exponent = 2
embed.make_frozen_orbs(norb = 44)
embed.embedding_potential()

#INFO: ******************** input file end ********************


System: uname_result(system='Linux', node='tigercpu.princeton.edu', release='3.10.0-957.27.2.el7.x86_64', version='#1 SMP Tue Jul 30 11:12:20 EDT 2019', machine='x86_64', processor='x86_64')  Threads 40
Python 3.7.0 (default, Jun 28 2018, 13:15:42) 
[GCC 7.2.0]
numpy 1.16.4  scipy 1.4.0.dev0+0f78e0f
Date: Fri Aug 30 21:17:52 2019
PySCF version 1.5
PySCF path  /home/xingz/.local/lib/python3.7/site-packages/pyscf

[CONFIG] conf_file None
[INPUT] verbose = 4
[INPUT] num. atoms = 22
[INPUT] num. electrons = 92
[INPUT] charge = 0
[INPUT] spin (= nelec alpha-beta = 2S) = 0
[INPUT] symmetry False subgroup None
[INPUT] Mole.unit = angstrom
[INPUT]  1 C      0.530010000000   0.151640000000  -4.107100000000 AA    1.001573743281   0.286558069529  -7.761294166201 Bohr
[INPUT]  2 C      0.427630000000  -0.616070000000  -2.945450000000 AA    0.808103582648  -1.164203573561  -5.566093813600 Bohr
[INPUT]  3 C      0.224070000000   0.007930000000  -1.708350000000 AA    0.423430932731   0.014985528168  -3.228313624901 Bohr
[INPUT]  4 C      0.122490000000   1.419090000000  -1.639590000000 AA    0.231472552998   2.681691446109  -3.098376056576 Bohr
[INPUT]  5 C      0.226790000000   2.178450000000  -2.811650000000 AA    0.428570987790   4.116673876059  -5.313248458133 Bohr
[INPUT]  6 C      0.429890000000   1.544710000000  -4.040400000000 AA    0.812374363689   2.919078841877  -7.635249433693 Bohr
[INPUT]  7 H      0.687030000000  -0.337240000000  -5.057670000000 AA    1.298298539360  -0.637291238248  -9.557611128429 Bohr
[INPUT]  8 H      0.506880000000  -1.695090000000  -3.010050000000 AA    0.957864378020  -3.203255856489  -5.688170121247 Bohr
[INPUT]  9 H      0.151290000000   3.259730000000  -2.776740000000 AA    0.285896665385   6.159996940028  -5.247278119125 Bohr
[INPUT] 10 H      0.509760000000   2.135330000000  -4.942590000000 AA    0.963306789258   4.035188885568  -9.340141446014 Bohr
[INPUT] 11 C     -0.081010000000   2.045360000000  -0.404050000000 AA   -0.153086713351   3.865170226140  -0.763543840631 Bohr
[INPUT] 12 C      0.121300000000  -0.758550000000  -0.544300000000 AA    0.229223778910  -1.433451751789  -1.028577929601 Bohr
[INPUT] 13 C     -0.183800000000   1.276600000000   0.761300000000 AA   -0.347331661695   2.412424370620   1.438648498631 Bohr
[INPUT] 14 C     -0.081840000000  -0.134110000000   0.689390000000 AA   -0.154655186034  -0.253431170565   1.302758293014 Bohr
[INPUT] 15 C     -0.387520000000   1.894330000000   2.002760000000 AA   -0.732306667791   3.579764889547   3.784667893234 Bohr
[INPUT] 16 C     -0.488990000000   1.119640000000   3.161040000000 AA   -0.924057177651   2.115812958108   5.973499868795 Bohr
[INPUT] 17 C     -0.387840000000  -0.274050000000   3.086750000000 AA   -0.732911380151  -0.517879444437   5.833112115001 Bohr
[INPUT] 18 C     -0.184960000000  -0.899690000000   1.855640000000 AA   -0.349523744000  -1.700167697010   3.506651385788 Bohr
[INPUT] 19 H     -0.108480000000  -1.980790000000   1.813170000000 AA   -0.204997489993  -3.743150610277   3.426394717278 Bohr
[INPUT] 20 H     -0.466540000000  -0.872610000000   3.983980000000 AA   -0.881632826155  -1.648993913557   7.528631085745 Bohr
[INPUT] 21 H     -0.645980000000   1.600060000000   4.115530000000 AA   -1.220725281947   3.023675182872   7.777224557431 Bohr
[INPUT] 22 H     -0.467560000000   2.972360000000   2.073840000000 AA   -0.883560346802   5.616946343612   3.918989626168 Bohr

nuclear repulsion = 738.789609854127
number of shells = 94
number of NR pGTOs = 420
number of NR cGTOs = 236
basis = ccpvdz
ecp = {}
CPU time:         4.52
rks_ao.ne_frozen =  0


******** <class 'pydmfet.qcwrap.pyscf_rks_ao.rks_ao'> flags ********
method = rks_ao-RKS-RHF
initial guess = minao
damping factor = 0
level shift factor = 0
DIIS = <class 'pyscf.scf.diis.CDIIS'>
DIIS start cycle = 1
DIIS space = 8
SCF tol = 1e-09
SCF gradient tol = None
max. SCF cycles = 50
direct_scf = False
chkfile to save SCF result = /tigress/xingz/pydmfet/examples/research/diradical/tmpsc7ivs9k
max_memory 4000 MB (current use 66 MB)
XC functionals = pbe,pbe
small_rho_cutoff = 1e-07
radial grids: 
    Treutler-Ahlrichs (JCP 102, 346 (M4)) radial grids
    
becke partition: Becke, JCP, 88, 2547 (1988)
pruning grids: <function nwchem_prune at 0x2aecbbac5400>
grids dens level: 3
symmetrized grids: False
atomic radii adjust function: <function treutler_atomic_radii_adjust at 0x2aecbbac5378>
Set gradient conv threshold to 3.16228e-05
tot grids = 274820
init E= -540.322366284538
HOMO:  -0.2944338653655629 LUMO:  -0.28480048373840455
Fermi energy:      -0.2891691842
[2.     2.     2.     2.     2.     2.     2.     2.     2.     2.
 2.     2.     2.     2.     2.     2.     2.     2.     2.     2.
 2.     2.     2.     2.     2.     2.     2.     2.     2.     2.
 2.     2.     2.     2.     2.     2.     2.     2.     2.     2.
 2.     2.     2.     2.     1.9284 1.4827 0.589 ]
entropy correction =  -0.01332201719775525
cycle= 1 E= -537.204256299562  delta_E= 3.12  |g|=    1  |ddm|= 6.09
HOMO:  -0.06704679108633574 LUMO:  -0.058681511087060975
Fermi energy:      -0.0628420836
[2.     2.     2.     2.     2.     2.     2.     2.     2.     2.
 2.     2.     2.     2.     2.     2.     2.     2.     2.     2.
 2.     2.     2.     2.     2.     2.     2.     2.     2.     2.
 2.     2.     2.     2.     2.     2.     2.     2.     2.     2.
 2.     2.     2.     1.9998 1.9964 1.3973 0.6064]
entropy correction =  -0.012394534252460848
cycle= 2 E= -537.001769322804  delta_E= 0.202  |g|= 1.36  |ddm|= 4.63
HOMO:  -0.1637833773354374 LUMO:  -0.134082419832982
Fermi energy:      -0.1479974480
[2.     2.     2.     2.     2.     2.     2.     2.     2.     2.
 2.     2.     2.     2.     2.     2.     2.     2.     2.     2.
 2.     2.     2.     2.     2.     2.     2.     2.     2.     2.
 2.     2.     2.     2.     2.     2.     2.     2.     2.     2.
 2.     2.     2.     2.     1.9651 1.9184 0.1165]
entropy correction =  -0.0048064407141710655
cycle= 3 E= -537.191193882479  delta_E= -0.189  |g|= 0.838  |ddm|= 3.62
HOMO:  -0.17143981218797422 LUMO:  -0.13765391506599742
Fermi energy:      -0.1545024018
[2.     2.     2.     2.     2.     2.     2.     2.     2.     2.
 2.     2.     2.     2.     2.     2.     2.     2.     2.     2.
 2.     2.     2.     2.     2.     2.     2.     2.     2.     2.
 2.     2.     2.     2.     2.     2.     2.     2.     2.     2.
 2.     2.     2.     2.     1.9989 1.9346 0.0665]
entropy correction =  -0.0029475479680270062
cycle= 4 E= -537.05232033782  delta_E= 0.139  |g|= 1.02  |ddm|= 2.31
HOMO:  -0.17712706865087305 LUMO:  -0.1676328679772105
Fermi energy:      -0.1722048725
[2.     2.     2.     2.     2.     2.     2.     2.     2.     2.
 2.     2.     2.     2.     2.     2.     2.     2.     2.     2.
 2.     2.     2.     2.     2.     2.     2.     2.     2.     2.
 2.     2.     2.     2.     2.     2.     2.     2.     2.     2.
 2.     2.     2.     2.     1.9718 1.456  0.5722]
entropy correction =  -0.012579565484859648
cycle= 5 E= -537.471750997226  delta_E= -0.419  |g|= 0.12  |ddm|= 1.38
HOMO:  -0.17094156384363468 LUMO:  -0.15147784077359838
Fermi energy:      -0.1600694550
[2.     2.     2.     2.     2.     2.     2.     2.     2.     2.
 2.     2.     2.     2.     2.     2.     2.     2.     2.     2.
 2.     2.     2.     2.     2.     2.     2.     2.     2.     2.
 2.     2.     2.     2.     2.     2.     2.     2.     2.     2.
 2.     2.     2.     2.     1.9    1.7959 0.3042]
entropy correction =  -0.009545372212501155
cycle= 6 E= -537.466499675117  delta_E= 0.00525  |g|= 0.172  |ddm|= 0.473
HOMO:  -0.1740157975354326 LUMO:  -0.16176480271993474
Fermi energy:      -0.1675384078
[2.     2.     2.     2.     2.     2.     2.     2.     2.     2.
 2.     2.     2.     2.     2.     2.     2.     2.     2.     2.
 2.     2.     2.     2.     2.     2.     2.     2.     2.     2.
 2.     2.     2.     2.     2.     2.     2.     2.     2.     2.
 2.     2.     2.     2.     1.9506 1.5701 0.4793]
entropy correction =  -0.011869053445853246
cycle= 7 E= -537.476451081359  delta_E= -0.00995  |g|= 0.0329  |ddm|= 0.28
HOMO:  -0.17407665826480778 LUMO:  -0.1617441767244157
Fermi energy:      -0.1675813510
[2.     2.     2.     2.     2.     2.     2.     2.     2.     2.
 2.     2.     2.     2.     2.     2.     2.     2.     2.     2.
 2.     2.     2.     2.     2.     2.     2.     2.     2.     2.
 2.     2.     2.     2.     2.     2.     2.     2.     2.     2.
 2.     2.     2.     2.     1.954  1.5714 0.4746]
entropy correction =  -0.011771126714835739
cycle= 8 E= -537.476746317597  delta_E= -0.000295  |g|= 0.0123  |ddm|= 0.0375
HOMO:  -0.17418914915812359 LUMO:  -0.1617254248033614
Fermi energy:      -0.1676223397
[2.     2.     2.     2.     2.     2.     2.     2.     2.     2.
 2.     2.     2.     2.     2.     2.     2.     2.     2.     2.
 2.     2.     2.     2.     2.     2.     2.     2.     2.     2.
 2.     2.     2.     2.     2.     2.     2.     2.     2.     2.
 2.     2.     2.     2.     1.9535 1.5762 0.4703]
entropy correction =  -0.011723588993140997
cycle= 9 E= -537.476775130444  delta_E= -2.88e-05  |g|= 0.00755  |ddm|= 0.0117
HOMO:  -0.17411602914540752 LUMO:  -0.16167338810535006
Fermi energy:      -0.1675589421
[2.     2.     2.     2.     2.     2.     2.     2.     2.     2.
 2.     2.     2.     2.     2.     2.     2.     2.     2.     2.
 2.     2.     2.     2.     2.     2.     2.     2.     2.     2.
 2.     2.     2.     2.     2.     2.     2.     2.     2.     2.
 2.     2.     2.     2.     1.9534 1.5755 0.4711]
entropy correction =  -0.011735807247541282
cycle= 10 E= -537.47679364537  delta_E= -1.85e-05  |g|= 0.00313  |ddm|= 0.00788
HOMO:  -0.17412555496245466 LUMO:  -0.1617432327177283
Fermi energy:      -0.1676024674
[2.     2.     2.     2.     2.     2.     2.     2.     2.     2.
 2.     2.     2.     2.     2.     2.     2.     2.     2.     2.
 2.     2.     2.     2.     2.     2.     2.     2.     2.     2.
 2.     2.     2.     2.     2.     2.     2.     2.     2.     2.
 2.     2.     2.     2.     1.9537 1.5732 0.473 ]
entropy correction =  -0.011754754243478008
cycle= 11 E= -537.476791720985  delta_E= 1.92e-06  |g|= 0.00368  |ddm|= 0.00493
HOMO:  -0.1741927069866175 LUMO:  -0.16182364581495873
Fermi energy:      -0.1676776536
[2.     2.     2.     2.     2.     2.     2.     2.     2.     2.
 2.     2.     2.     2.     2.     2.     2.     2.     2.     2.
 2.     2.     2.     2.     2.     2.     2.     2.     2.     2.
 2.     2.     2.     2.     2.     2.     2.     2.     2.     2.
 2.     2.     2.     2.     1.9539 1.5727 0.4734]
entropy correction =  -0.011757451753441478
cycle= 12 E= -537.47679664766  delta_E= -4.93e-06  |g|= 0.000856  |ddm|= 0.00441
HOMO:  -0.1741455490756374 LUMO:  -0.16174021174715061
Fermi energy:      -0.1676102537
[2.     2.     2.     2.     2.     2.     2.     2.     2.     2.
 2.     2.     2.     2.     2.     2.     2.     2.     2.     2.
 2.     2.     2.     2.     2.     2.     2.     2.     2.     2.
 2.     2.     2.     2.     2.     2.     2.     2.     2.     2.
 2.     2.     2.     2.     1.9537 1.574  0.4723]
entropy correction =  -0.011745559664794741
cycle= 13 E= -537.476796947137  delta_E= -2.99e-07  |g|= 0.000107  |ddm|= 0.00197
HOMO:  -0.17414249215668703 LUMO:  -0.16174317696536328
Fermi energy:      -0.1676104870
[2.     2.     2.     2.     2.     2.     2.     2.     2.     2.
 2.     2.     2.     2.     2.     2.     2.     2.     2.     2.
 2.     2.     2.     2.     2.     2.     2.     2.     2.     2.
 2.     2.     2.     2.     2.     2.     2.     2.     2.     2.
 2.     2.     2.     2.     1.9537 1.5738 0.4725]
entropy correction =  -0.011747718396789458
cycle= 14 E= -537.476796946989  delta_E= 1.47e-10  |g|= 0.000108  |ddm|= 0.000346
HOMO:  -0.17414941972014 LUMO:  -0.16174754580021192
Fermi energy:      -0.1676159751
[2.     2.     2.     2.     2.     2.     2.     2.     2.     2.
 2.     2.     2.     2.     2.     2.     2.     2.     2.     2.
 2.     2.     2.     2.     2.     2.     2.     2.     2.     2.
 2.     2.     2.     2.     2.     2.     2.     2.     2.     2.
 2.     2.     2.     2.     1.9537 1.5739 0.4724]
entropy correction =  -0.011746908656122951
cycle= 15 E= -537.476796949633  delta_E= -2.64e-09  |g|= 6.77e-05  |ddm|= 0.000231
HOMO:  -0.17414712647380323 LUMO:  -0.16174570722578027
Fermi energy:      -0.1676139681
[2.     2.     2.     2.     2.     2.     2.     2.     2.     2.
 2.     2.     2.     2.     2.     2.     2.     2.     2.     2.
 2.     2.     2.     2.     2.     2.     2.     2.     2.     2.
 2.     2.     2.     2.     2.     2.     2.     2.     2.     2.
 2.     2.     2.     2.     1.9537 1.5739 0.4724]
entropy correction =  -0.011746973781254704
cycle= 16 E= -537.476796950829  delta_E= -1.2e-09  |g|= 1.82e-05  |ddm|= 8.26e-05
HOMO:  -0.17414695752381001 LUMO:  -0.16174572411766386
Fermi energy:      -0.1676138951
[2.     2.     2.     2.     2.     2.     2.     2.     2.     2.
 2.     2.     2.     2.     2.     2.     2.     2.     2.     2.
 2.     2.     2.     2.     2.     2.     2.     2.     2.     2.
 2.     2.     2.     2.     2.     2.     2.     2.     2.     2.
 2.     2.     2.     2.     1.9537 1.5739 0.4724]
entropy correction =  -0.01174705471754687
cycle= 17 E= -537.476796950913  delta_E= -8.41e-11  |g|= 9.95e-06  |ddm|= 3.15e-05
HOMO:  -0.17414696619752162 LUMO:  -0.1617454684949678
Fermi energy:      -0.1676137656
[2.     2.     2.     2.     2.     2.     2.     2.     2.     2.
 2.     2.     2.     2.     2.     2.     2.     2.     2.     2.
 2.     2.     2.     2.     2.     2.     2.     2.     2.     2.
 2.     2.     2.     2.     2.     2.     2.     2.     2.     2.
 2.     2.     2.     2.     1.9537 1.5739 0.4724]
entropy correction =  -0.011746943898386208
Extra cycle  E= -537.47679694577  delta_E= 5.14e-09  |g|= 0.000113  |ddm|= 0.000155
converged SCF energy = -537.47679694577


******** <class 'pyscf.lo.pipek.PipekMezey'> flags ********
conv_tol = 1e-06
conv_tol_grad = None
max_cycle = 100
max_stepsize = 0.05
max_iters = 20
kf_interval = 5
kf_trust_region = 5
ah_start_tol = 1000000000.0
ah_start_cycle = 1
ah_level_shift = 0
ah_conv_tol = 1e-12
ah_lindep = 1e-14
ah_max_cycle = 40
ah_trust_region = 3
init_guess = atomic
pop_method = meta_lowdin
Set conv_tol_grad to 0.000316228
macro= 1  f(x)= 15.949918929083  delta_f= 15.9499  |g|= 1.31387  3 KF 20 Hx
macro= 2  f(x)= 17.008270912539  delta_f= 1.05835  |g|= 0.689308  4 KF 20 Hx
macro= 3  f(x)= 18.78062343237  delta_f= 1.77235  |g|= 0.957786  4 KF 20 Hx
macro= 4  f(x)= 22.562110554775  delta_f= 3.78149  |g|= 1.06564  4 KF 20 Hx
macro= 5  f(x)= 26.419212061676  delta_f= 3.8571  |g|= 0.791461  4 KF 20 Hx
macro= 6  f(x)= 26.990260374057  delta_f= 0.571048  |g|= 0.536183  3 KF 21 Hx
macro= 7  f(x)= 27.251828512853  delta_f= 0.261568  |g|= 0.208765  4 KF 16 Hx
macro= 8  f(x)= 27.301625383648  delta_f= 0.0497969  |g|= 0.0580038  2 KF 12 Hx
macro= 9  f(x)= 27.381252910367  delta_f= 0.0796275  |g|= 0.0786512  4 KF 25 Hx
macro= 10  f(x)= 27.384319268048  delta_f= 0.00306636  |g|= 0.000414911  3 KF 8 Hx
macro= 11  f(x)= 27.38431926805  delta_f= 2.26308e-12  |g|= 2.78608e-05  1 KF 1 Hx
macro X = 11  f(x)= 27.38431926805  |g|= 2.78608e-05  22 intor 36 KF 183 Hx
  sorted Mulliken popupaltion: 1.0 for fully occupied
1.018469e+00 1.008934e+00 1.003857e+00 1.000052e+00 9.999999e-01 
9.999989e-01 9.999979e-01 9.999329e-01 9.998591e-01 9.998150e-01 
9.998086e-01 9.997911e-01 9.997535e-01 9.981890e-01 9.973320e-01 
9.965688e-01 9.955927e-01 9.874429e-01 9.868253e-01 9.860283e-01 
8.570959e-01 5.787263e-01 4.219037e-01 1.436524e-01 1.393819e-02 
1.304063e-02 1.252455e-02 4.428315e-03 3.429367e-03 2.633878e-03 
9.258467e-04 4.072934e-04 2.732217e-04 1.886466e-04 1.797602e-04 
1.378664e-04 7.152070e-05 2.141446e-06 1.153414e-06 8.757405e-08 
-4.266688e-05 -3.354871e-03 -9.020587e-03 -1.851177e-02 
23 enviroment orbitals kept frozen.
rks_ao.ne_frozen =  46
Set gradient conv threshold to 3.16228e-05
tot grids = 274820
init E= -537.649360059025
HOMO:  -0.1741480128833755 LUMO:  -0.16174857658653055
Fermi energy:      -0.1676159741
[2.     2.     2.     2.     2.     2.     2.     2.     2.     2.
 2.     2.     2.     2.     2.     2.     2.     2.     2.     2.
 2.     1.9537 1.5738 0.4725]
entropy correction =  -0.011747390354002844
cycle= 1 E= -537.476795776435  delta_E= 0.173  |g|= 0.00203  |ddm|= 0.00304
HOMO:  -0.17414396429894 LUMO:  -0.16171433205127508
Fermi energy:      -0.1675975905
[2.     2.     2.     2.     2.     2.     2.     2.     2.     2.
 2.     2.     2.     2.     2.     2.     2.     2.     2.     2.
 2.     1.9539 1.5748 0.4713]
entropy correction =  -0.011730962057518403
cycle= 2 E= -537.476112639975  delta_E= 0.000683  |g|= 0.0391  |ddm|= 0.0585
HOMO:  -0.17414589440358821 LUMO:  -0.1617409686932114
Fermi energy:      -0.1676107990
[2.     2.     2.     2.     2.     2.     2.     2.     2.     2.
 2.     2.     2.     2.     2.     2.     2.     2.     2.     2.
 2.     1.9537 1.574  0.4723]
entropy correction =  -0.011745571622530728
cycle= 3 E= -537.476797623864  delta_E= -0.000685  |g|= 0.000122  |ddm|= 0.0556
HOMO:  -0.17414776432502313 LUMO:  -0.1617481976326586
Fermi energy:      -0.1676156549
[2.     2.     2.     2.     2.     2.     2.     2.     2.     2.
 2.     2.     2.     2.     2.     2.     2.     2.     2.     2.
 2.     1.9537 1.5738 0.4724]
entropy correction =  -0.011747342213643125
cycle= 4 E= -537.476797628706  delta_E= -4.84e-09  |g|= 3.51e-05  |ddm|= 0.00025
HOMO:  -0.174146928764875 LUMO:  -0.1617448811874573
Fermi energy:      -0.1676134179
[2.     2.     2.     2.     2.     2.     2.     2.     2.     2.
 2.     2.     2.     2.     2.     2.     2.     2.     2.     2.
 2.     1.9537 1.5739 0.4724]
entropy correction =  -0.011746572309620996
cycle= 5 E= -537.476797629092  delta_E= -3.86e-10  |g|= 2.01e-05  |ddm|= 0.00011
HOMO:  -0.17414825690336352 LUMO:  -0.1617502762095725
Fermi energy:      -0.1676170383
[2.     2.     2.     2.     2.     2.     2.     2.     2.     2.
 2.     2.     2.     2.     2.     2.     2.     2.     2.     2.
 2.     1.9537 1.5738 0.4725]
entropy correction =  -0.01174784755785348
Extra cycle  E= -537.476797627386  delta_E= 1.71e-09  |g|= 6.83e-05  |ddm|= 0.000181
<class 'pydmfet.qcwrap.pyscf_rks_ao.rks_ao'> does not have attributes  coredm vext_1e add_coredm_ext_energy ne_frozen dm_guess
entropy correction =  -0.01174784755785348
level shift energy: 6.977391059787008e-07
|P_frag + P_bath - P_ref| / N =  1.0156918505853408e-06
max(P_frag + P_bath - P_ref) =  5.985286323456629e-05
