#INFO: **** input file is /tigress/xingz/pydmfet/examples/research/proj/Cu2/Cu2.py ****
from pydmfet import proj_ao
from pydmfet.qcwrap.pyscf_rks_ao import rks_ao
from pyscf import gto,scf
import numpy as np
from pyscf.tools import molden
from pyscf import lo
from pyscf.lo import iao,orth
from functools import reduce
import math

bas ='lanl2dz'
ecp = 'lanl2dz'
temp = 0.005

mol = gto.Mole()
mol.atom = open('Cu2.xyz').read()
mol.basis = bas
mol.ecp = ecp
mol.charge = -2
mol.build(max_memory = 4000, verbose=4)


#mf = scf.RKS(mol)
mf = rks_ao(mol,smear_sigma = temp)
mf.xc = "pbe,pbe"
mf.max_cycle = 50

DMguess = None
mf.scf(dm0=DMguess)

natoms = mol.natm
impAtom = np.zeros([natoms], dtype=int)
for i in range(2):
    impAtom[i] = 1


embed = proj_ao.proj_embed(mf,impAtom, Ne_env = 34)
embed.pop_method = 'meta_lowdin'
embed.pm_exponent = 2
embed.make_frozen_orbs(norb = 33)
embed.embedding_potential()
#INFO: ******************** input file end ********************


System: uname_result(system='Linux', node='tigercpu.princeton.edu', release='3.10.0-957.27.2.el7.x86_64', version='#1 SMP Tue Jul 30 11:12:20 EDT 2019', machine='x86_64', processor='x86_64')  Threads 40
Python 3.7.0 (default, Jun 28 2018, 13:15:42) 
[GCC 7.2.0]
numpy 1.16.4  scipy 1.4.0.dev0+0f78e0f
Date: Sat Sep  7 13:46:27 2019
PySCF version 1.5
PySCF path  /home/xingz/.local/lib/python3.7/site-packages/pyscf

[CONFIG] conf_file None
[INPUT] verbose = 4
[INPUT] num. atoms = 8
[INPUT] num. electrons = 82
[INPUT] charge = -2
[INPUT] spin (= nelec alpha-beta = 2S) = 0
[INPUT] symmetry False subgroup None
[INPUT] Mole.unit = angstrom
[INPUT]  1 Cu    -0.441980000000   1.042360000000  -0.035730000000 AA   -0.835221152535   1.969774923202  -0.067519914431 Bohr
[INPUT]  2 Cu     2.942440000000   1.248890000000   0.035730000000 AA    5.560405737965   2.360060059708   0.067519914431 Bohr
[INPUT]  3 Cl    -1.897990000000  -0.682570000000   0.075050000000 AA   -3.586681287163  -1.289870360844   0.141823945649 Bohr
[INPUT]  4 Cl    -2.090880000000   2.577820000000  -0.212080000000 AA   -3.951190559331   4.871373798426  -0.400773116498 Bohr
[INPUT]  5 Cl     1.158810000000   2.690810000000  -0.136080000000 AA    2.189833530407   5.084893953241  -0.257153931031 Bohr
[INPUT]  6 Cl     1.341650000000  -0.399560000000   0.136080000000 AA    2.535351055023  -0.755058970331   0.257153931031 Bohr
[INPUT]  7 Cl     4.398440000000   2.973820000000  -0.075050000000 AA    8.311846975332   5.619705343754  -0.141823945649 Bohr
[INPUT]  8 Cl     4.591340000000  -0.286580000000   0.212080000000 AA    8.676375144761  -0.541557712778   0.400773116498 Bohr

nuclear repulsion = 451.217501293853
number of shells = 38
number of NR pGTOs = 162
number of NR cGTOs = 92
basis = lanl2dz
ecp = lanl2dz
CPU time:         4.70
rks_ao.ne_frozen =  0


******** <class 'pydmfet.qcwrap.pyscf_rks_ao.rks_ao'> flags ********
method = rks_ao-RKS-RHF
initial guess = minao
damping factor = 0
level shift factor = 0
DIIS = <class 'pyscf.scf.diis.CDIIS'>
DIIS start cycle = 1
DIIS space = 8
SCF tol = 1e-09
SCF gradient tol = None
max. SCF cycles = 50
direct_scf = False
chkfile to save SCF result = /tigress/xingz/pydmfet/examples/research/proj/Cu2/tmpmsecvtuk
max_memory 4000 MB (current use 64 MB)
XC functionals = pbe,pbe
small_rho_cutoff = 1e-07
radial grids: 
    Treutler-Ahlrichs (JCP 102, 346 (M4)) radial grids
    
becke partition: Becke, JCP, 88, 2547 (1988)
pruning grids: <function nwchem_prune at 0x2b218b2cf950>
grids dens level: 3
symmetrized grids: False
atomic radii adjust function: <function treutler_atomic_radii_adjust at 0x2b218b2cf8c8>
Set gradient conv threshold to 3.16228e-05
tot grids = 154128
init E= -467.462792451998
HOMO:  0.21874871437076077 LUMO:  0.22831437501942822
Fermi energy:       0.2235718634
[2.     2.     2.     2.     2.     2.     2.     2.     2.     2.
 2.     2.     2.     2.     2.     2.     2.     2.     2.     2.
 2.     2.     2.     2.     2.     2.     2.     2.     2.     2.
 2.     2.     2.     2.     2.     2.     2.     2.     2.     1.9935
 1.4481 0.5584]
entropy correction =  -0.012030461857597373
cycle= 1 E= -410.105804071393  delta_E= 57.4  |g|= 8.39  |ddm|= 25.9
HOMO:  -1.5630096420725956 LUMO:  -1.5367266498378636
Fermi energy:      -1.5499972181
[2.0000e+00 2.0000e+00 2.0000e+00 2.0000e+00 2.0000e+00 2.0000e+00
 2.0000e+00 2.0000e+00 2.0000e+00 2.0000e+00 2.0000e+00 2.0000e+00
 2.0000e+00 2.0000e+00 2.0000e+00 2.0000e+00 2.0000e+00 2.0000e+00
 2.0000e+00 2.0000e+00 2.0000e+00 2.0000e+00 2.0000e+00 2.0000e+00
 2.0000e+00 2.0000e+00 2.0000e+00 2.0000e+00 2.0000e+00 2.0000e+00
 2.0000e+00 2.0000e+00 2.0000e+00 2.0000e+00 2.0000e+00 2.0000e+00
 2.0000e+00 2.0000e+00 2.0000e+00 1.9796e+00 1.8620e+00 1.3147e-01
 2.6598e-02 2.7833e-04]
entropy correction =  -0.006223922518913322
cycle= 2 E= -401.538612213435  delta_E= 8.57  |g|= 7.31  |ddm|= 29.4
HOMO:  -0.1345790203948801 LUMO:  -0.05948338425681742
Fermi energy:      -0.0972415566
[2.0000e+00 2.0000e+00 2.0000e+00 2.0000e+00 2.0000e+00 2.0000e+00
 2.0000e+00 2.0000e+00 2.0000e+00 2.0000e+00 2.0000e+00 2.0000e+00
 2.0000e+00 2.0000e+00 2.0000e+00 2.0000e+00 2.0000e+00 2.0000e+00
 2.0000e+00 2.0000e+00 2.0000e+00 2.0000e+00 2.0000e+00 2.0000e+00
 2.0000e+00 2.0000e+00 2.0000e+00 2.0000e+00 2.0000e+00 2.0000e+00
 2.0000e+00 2.0000e+00 2.0000e+00 2.0000e+00 2.0000e+00 2.0000e+00
 2.0000e+00 2.0000e+00 2.0000e+00 2.0000e+00 1.9989e+00 1.0500e-03]
entropy correction =  -9.862463108501957e-05
cycle= 3 E= -466.993953695777  delta_E= -65.5  |g|= 5.85  |ddm|= 17.5
HOMO:  -0.19632377953858027 LUMO:  -0.19597791274158122
Fermi energy:      -0.1928443984
[2.     2.     2.     2.     2.     2.     2.     2.     2.     2.
 2.     2.     2.     2.     2.     2.     2.     2.     2.     2.
 2.     2.     2.     2.     2.     2.     2.     2.     2.     2.
 2.     2.     1.9998 1.9993 1.9979 1.9965 1.9471 1.9432 1.7416 1.7367
 1.3345 1.3035]
entropy correction =  -0.023337439476189985
cycle= 4 E= -479.585920348137  delta_E= -12.6  |g|= 3.08  |ddm|=   11
HOMO:  -0.059338273871682876 LUMO:  -0.058346572330457896
Fermi energy:      -0.0587610219
[2.     2.     2.     2.     2.     2.     2.     2.     2.     2.
 2.     2.     2.     2.     2.     2.     2.     2.     2.     2.
 2.     2.     2.     2.     2.     2.     2.     2.     2.     2.
 2.     2.     2.     2.     2.     2.     2.     2.     1.9952 1.9886
 1.0577 0.9586]
entropy correction =  -0.01435902943114748
cycle= 5 E= -480.692882283187  delta_E= -1.11  |g|= 2.31  |ddm|= 2.58
HOMO:  -0.08914554980588141 LUMO:  -0.08619386496821521
Fermi energy:      -0.0862274399
[2.     2.     2.     2.     2.     2.     2.     2.     2.     2.
 2.     2.     2.     2.     2.     2.     2.     2.     2.     2.
 2.     2.     2.     2.     2.     2.     2.     2.     2.     2.
 2.     2.     2.     1.9996 1.9996 1.9987 1.9985 1.9947 1.9796 1.7489
 1.2838 0.9966]
entropy correction =  -0.018143353044551846
cycle= 6 E= -481.537345800993  delta_E= -0.844  |g|= 1.68  |ddm|= 1.24
HOMO:  -0.03672394537284201 LUMO:  -0.03666691925235225
Fermi energy:      -0.0355754632
[2.     2.     2.     2.     2.     2.     2.     2.     2.     2.
 2.     2.     2.     2.     2.     2.     2.     2.     2.     2.
 2.     2.     2.     2.     2.     2.     2.     2.     2.     2.
 2.     2.     1.9994 1.9978 1.9955 1.9897 1.9852 1.9687 1.9249 1.9157
 1.1143 1.1087]
entropy correction =  -0.01892404124195626
cycle= 7 E= -481.434005675674  delta_E= 0.103  |g|= 1.83  |ddm|= 1.23
HOMO:  -0.031738420051087915 LUMO:  -0.028304041170007056
Fermi energy:      -0.0293123723
[2.     2.     2.     2.     2.     2.     2.     2.     2.     2.
 2.     2.     2.     2.     2.     2.     2.     2.     2.     2.
 2.     2.     2.     2.     2.     2.     2.     2.     2.     2.
 2.     2.     1.9999 1.9995 1.9994 1.9991 1.9991 1.9983 1.9857 1.8815
 1.238  0.8995]
entropy correction =  -0.016403779535494146
cycle= 8 E= -481.849488238146  delta_E= -0.415  |g|= 1.29  |ddm|= 1.31
HOMO:  -0.01033337674832712 LUMO:  0.0007074607303730136
Fermi energy:      -0.0039251597
[2.     2.     2.     2.     2.     2.     2.     2.     2.     2.
 2.     2.     2.     2.     2.     2.     2.     2.     2.     2.
 2.     2.     2.     2.     2.     2.     2.     2.     2.     2.
 2.     1.9993 1.9989 1.9983 1.9929 1.9922 1.9893 1.984  1.9793 1.9331
 1.5655 0.5673]
entropy correction =  -0.01467709835244527
cycle= 9 E= -482.044475986815  delta_E= -0.195  |g|= 1.07  |ddm|= 0.906
HOMO:  0.06987607233797627 LUMO:  0.0873648053986769
Fermi energy:       0.0786614214
[2.     2.     2.     2.     2.     2.     2.     2.     2.     2.
 2.     2.     2.     2.     2.     2.     2.     2.     2.     2.
 2.     2.     2.     2.     2.     2.     2.     2.     2.     2.
 2.     2.     2.     2.     2.     2.     1.9997 1.9996 1.9983 1.9983
 1.7057 0.2985]
entropy correction =  -0.008565033930324576
cycle= 10 E= -482.032581872421  delta_E= 0.0119  |g|= 0.915  |ddm|= 1.43
HOMO:  0.08962837484661859 LUMO:  0.13004696663486423
Fermi energy:       0.1120849792
[2.     2.     2.     2.     2.     2.     2.     2.     2.     2.
 2.     2.     2.     2.     2.     2.     2.     2.     2.     2.
 2.     2.     2.     2.     2.     2.     2.     2.     2.     2.
 2.     2.     2.     2.     2.     2.     2.     1.9948 1.9914 1.9824
 1.9778 0.0536]
entropy correction =  -0.0028063847795602643
cycle= 11 E= -481.373880257576  delta_E= 0.659  |g|=  1.9  |ddm|= 2.31
HOMO:  0.055026470052712426 LUMO:  0.06384159081763195
Fermi energy:       0.0595089657
[2.     2.     2.     2.     2.     2.     2.     2.     2.     2.
 2.     2.     2.     2.     2.     2.     2.     2.     2.     2.
 2.     2.     2.     2.     2.     2.     2.     2.     2.     2.
 2.     2.     2.     1.9999 1.9995 1.9994 1.9993 1.9992 1.9982 1.992
 1.4205 0.592 ]
entropy correction =  -0.012547716290836668
cycle= 12 E= -482.271816529708  delta_E= -0.898  |g|= 0.277  |ddm|= 1.34
HOMO:  0.05643860945151743 LUMO:  0.07796708268649952
Fermi energy:       0.0675524745
[2.     2.     2.     2.     2.     2.     2.     2.     2.     2.
 2.     2.     2.     2.     2.     2.     2.     2.     2.     2.
 2.     2.     2.     2.     2.     2.     2.     2.     2.     2.
 2.     2.     2.     2.     2.     2.     1.9977 1.9957 1.995  1.9855
 1.8046 0.2215]
entropy correction =  -0.0075306773660162585
cycle= 13 E= -482.060208343018  delta_E= 0.212  |g|= 0.773  |ddm|= 1.43
HOMO:  0.0561782166376791 LUMO:  0.0656803470780554
Fermi energy:       0.0610293925
[2.     2.     2.     2.     2.     2.     2.     2.     2.     2.
 2.     2.     2.     2.     2.     2.     2.     2.     2.     2.
 2.     2.     2.     2.     2.     2.     2.     2.     2.     2.
 2.     2.     1.9999 1.9998 1.9994 1.9992 1.9992 1.999  1.9978 1.9895
 1.4503 0.5658]
entropy correction =  -0.01240297829511436
cycle= 14 E= -482.267546250273  delta_E= -0.207  |g|= 0.281  |ddm|= 0.726
HOMO:  0.05930112598346481 LUMO:  0.06695698251219734
Fermi energy:       0.0631998465
[2.     2.     2.     2.     2.     2.     2.     2.     2.     2.
 2.     2.     2.     2.     2.     2.     2.     2.     2.     2.
 2.     2.     2.     2.     2.     2.     2.     2.     2.     2.
 2.     2.     1.9999 1.9998 1.9994 1.9994 1.9994 1.9993 1.9984 1.9921
 1.3712 0.641 ]
entropy correction =  -0.012948192699279803
cycle= 15 E= -482.28883097812  delta_E= -0.0213  |g|= 0.142  |ddm|= 0.204
HOMO:  0.06033518958588209 LUMO:  0.06854982969851521
Fermi energy:       0.0644944493
[2.     2.     2.     2.     2.     2.     2.     2.     2.     2.
 2.     2.     2.     2.     2.     2.     2.     2.     2.     2.
 2.     2.     2.     2.     2.     2.     2.     2.     2.     2.
 2.     2.     2.     1.9998 1.9996 1.9995 1.9994 1.9994 1.9988 1.9946
 1.3935 0.6153]
entropy correction =  -0.012649979510193988
cycle= 16 E= -482.286904601734  delta_E= 0.00193  |g|= 0.167  |ddm|= 0.0792
HOMO:  0.060259417234958285 LUMO:  0.06764775011982677
Fermi energy:       0.0640073155
[2.     2.     2.     2.     2.     2.     2.     2.     2.     2.
 2.     2.     2.     2.     2.     2.     2.     2.     2.     2.
 2.     2.     2.     2.     2.     2.     2.     2.     2.     2.
 2.     2.     2.     1.9998 1.9996 1.9995 1.9994 1.9992 1.9991 1.9941
 1.3582 0.6512]
entropy correction =  -0.012946747455335469
cycle= 17 E= -482.294507326645  delta_E= -0.0076  |g|= 0.0877  |ddm|= 0.123
HOMO:  0.060848833612115794 LUMO:  0.0680728269458496
Fermi energy:       0.0645100754
[2.     2.     2.     2.     2.     2.     2.     2.     2.     2.
 2.     2.     2.     2.     2.     2.     2.     2.     2.     2.
 2.     2.     2.     2.     2.     2.     2.     2.     2.     2.
 2.     2.     2.     1.9998 1.9996 1.9995 1.9995 1.9993 1.9991 1.9946
 1.3506 0.6581]
entropy correction =  -0.012975286933949799
cycle= 18 E= -482.29657153819  delta_E= -0.00206  |g|= 0.0329  |ddm|= 0.0713
HOMO:  0.06113391112173675 LUMO:  0.06835676585389067
Fermi energy:       0.0647923579
[2.     2.     2.     2.     2.     2.     2.     2.     2.     2.
 2.     2.     2.     2.     2.     2.     2.     2.     2.     2.
 2.     2.     2.     2.     2.     2.     2.     2.     2.     2.
 2.     2.     2.     1.9998 1.9996 1.9995 1.9995 1.9993 1.9992 1.9949
 1.3504 0.6579]
entropy correction =  -0.012962825254826922
cycle= 19 E= -482.296935690999  delta_E= -0.000364  |g|= 0.0135  |ddm|= 0.0338
HOMO:  0.06119730728337042 LUMO:  0.06843033123502494
Fermi energy:       0.0648595294
[2.     2.     2.     2.     2.     2.     2.     2.     2.     2.
 2.     2.     2.     2.     2.     2.     2.     2.     2.     2.
 2.     2.     2.     2.     2.     2.     2.     2.     2.     2.
 2.     2.     2.     1.9998 1.9996 1.9995 1.9995 1.9993 1.9992 1.995
 1.3507 0.6574]
entropy correction =  -0.012951982824379022
cycle= 20 E= -482.296785655094  delta_E= 0.00015  |g|= 0.0243  |ddm|= 0.0548
HOMO:  0.061244548653374156 LUMO:  0.06844552468632155
Fermi energy:       0.0648915484
[2.     2.     2.     2.     2.     2.     2.     2.     2.     2.
 2.     2.     2.     2.     2.     2.     2.     2.     2.     2.
 2.     2.     2.     2.     2.     2.     2.     2.     2.     2.
 2.     2.     2.     1.9998 1.9996 1.9995 1.9995 1.9993 1.9992 1.9949
 1.3493 0.6588]
entropy correction =  -0.012967051103535345
cycle= 21 E= -482.297009057678  delta_E= -0.000223  |g|= 0.00164  |ddm|= 0.0331
HOMO:  0.061224146347008984 LUMO:  0.06842042778400967
Fermi energy:       0.0648688810
[2.     2.     2.     2.     2.     2.     2.     2.     2.     2.
 2.     2.     2.     2.     2.     2.     2.     2.     2.     2.
 2.     2.     2.     2.     2.     2.     2.     2.     2.     2.
 2.     2.     2.     1.9998 1.9996 1.9995 1.9995 1.9993 1.9992 1.9949
 1.3491 0.6591]
entropy correction =  -0.012969079620042772
cycle= 22 E= -482.29701023436  delta_E= -1.18e-06  |g|= 0.000475  |ddm|= 0.0031
HOMO:  0.061216535870688205 LUMO:  0.06841620980207869
Fermi energy:       0.0648628034
[2.     2.     2.     2.     2.     2.     2.     2.     2.     2.
 2.     2.     2.     2.     2.     2.     2.     2.     2.     2.
 2.     2.     2.     2.     2.     2.     2.     2.     2.     2.
 2.     2.     2.     1.9998 1.9996 1.9995 1.9995 1.9993 1.9992 1.9949
 1.3493 0.6589]
entropy correction =  -0.012967028929352203
cycle= 23 E= -482.297010284208  delta_E= -4.98e-08  |g|= 0.000306  |ddm|= 0.000873
HOMO:  0.06121217248649281 LUMO:  0.0684113115128214
Fermi energy:       0.0648582839
[2.     2.     2.     2.     2.     2.     2.     2.     2.     2.
 2.     2.     2.     2.     2.     2.     2.     2.     2.     2.
 2.     2.     2.     2.     2.     2.     2.     2.     2.     2.
 2.     2.     2.     1.9998 1.9996 1.9995 1.9995 1.9993 1.9992 1.9949
 1.3493 0.6589]
entropy correction =  -0.012967844874143201
cycle= 24 E= -482.297010287939  delta_E= -3.73e-09  |g|= 0.000268  |ddm|= 0.000349
HOMO:  0.06121147137415736 LUMO:  0.06841074844284235
Fermi energy:       0.0648576491
[2.     2.     2.     2.     2.     2.     2.     2.     2.     2.
 2.     2.     2.     2.     2.     2.     2.     2.     2.     2.
 2.     2.     2.     2.     2.     2.     2.     2.     2.     2.
 2.     2.     2.     1.9998 1.9996 1.9995 1.9995 1.9993 1.9992 1.9949
 1.3493 0.6589]
entropy correction =  -0.012967784457159666
cycle= 25 E= -482.297010314488  delta_E= -2.65e-08  |g|= 2.89e-05  |ddm|= 0.000432
HOMO:  0.06121108351581222 LUMO:  0.06841037897366883
Fermi energy:       0.0648572733
[2.     2.     2.     2.     2.     2.     2.     2.     2.     2.
 2.     2.     2.     2.     2.     2.     2.     2.     2.     2.
 2.     2.     2.     2.     2.     2.     2.     2.     2.     2.
 2.     2.     2.     1.9998 1.9996 1.9995 1.9995 1.9993 1.9992 1.9949
 1.3493 0.6589]
entropy correction =  -0.012967794882220647
cycle= 26 E= -482.29701031476  delta_E= -2.72e-10  |g|= 6.77e-06  |ddm|= 3.23e-05
HOMO:  0.06121112483102668 LUMO:  0.06841041305902525
Fermi energy:       0.0648573123
[2.     2.     2.     2.     2.     2.     2.     2.     2.     2.
 2.     2.     2.     2.     2.     2.     2.     2.     2.     2.
 2.     2.     2.     2.     2.     2.     2.     2.     2.     2.
 2.     2.     2.     1.9998 1.9996 1.9995 1.9995 1.9993 1.9992 1.9949
 1.3493 0.6589]
entropy correction =  -0.01296780444470775
Extra cycle  E= -482.297010308469  delta_E= 6.29e-09  |g|= 0.000137  |ddm|= 0.000194
converged SCF energy = -482.297010308469


******** <class 'pyscf.lo.pipek.PipekMezey'> flags ********
conv_tol = 1e-06
conv_tol_grad = None
max_cycle = 100
max_stepsize = 0.05
max_iters = 20
kf_interval = 5
kf_trust_region = 5
ah_start_tol = 1000000000.0
ah_start_cycle = 1
ah_level_shift = 0
ah_conv_tol = 1e-12
ah_lindep = 1e-14
ah_max_cycle = 40
ah_trust_region = 3
init_guess = atomic
pop_method = meta_lowdin
Set conv_tol_grad to 0.000316228
macro= 1  f(x)= 14.015492674375  delta_f= 14.0155  |g|= 1.5228  3 KF 20 Hx
macro= 2  f(x)= 14.725438317898  delta_f= 0.709946  |g|= 1.22352  3 KF 20 Hx
macro= 3  f(x)= 15.838924413606  delta_f= 1.11349  |g|= 1.37147  3 KF 20 Hx
macro= 4  f(x)= 18.410017648801  delta_f= 2.57109  |g|= 1.27933  4 KF 20 Hx
macro= 5  f(x)= 19.953716851756  delta_f= 1.5437  |g|= 1.31797  3 KF 20 Hx
macro= 6  f(x)= 21.141642464088  delta_f= 1.18793  |g|= 0.808564  4 KF 20 Hx
macro= 7  f(x)= 21.890408200896  delta_f= 0.748766  |g|= 0.810316  3 KF 20 Hx
macro= 8  f(x)= 22.83060831626  delta_f= 0.9402  |g|= 0.319318  4 KF 22 Hx
macro= 9  f(x)= 23.371623888402  delta_f= 0.541016  |g|= 0.36307  4 KF 22 Hx
macro= 10  f(x)= 24.734684206307  delta_f= 1.36306  |g|= 0.716212  4 KF 20 Hx
macro= 11  f(x)= 24.917355315706  delta_f= 0.182671  |g|= 0.577439  3 KF 21 Hx
macro= 12  f(x)= 25.102548266165  delta_f= 0.185193  |g|= 0.0487337  4 KF 26 Hx
macro= 13  f(x)= 25.108752079308  delta_f= 0.00620381  |g|= 0.000492247  3 KF 9 Hx
macro= 14  f(x)= 25.108752086099  delta_f= 6.79093e-09  |g|= 9.05328e-05  1 KF 2 Hx
macro X = 14  f(x)= 25.108752086099  |g|= 9.05328e-05  28 intor 46 KF 262 Hx
  sorted Mulliken popupaltion: 1.0 for fully occupied
1.005100e+00 1.005100e+00 9.915771e-01 9.915762e-01 9.912304e-01 
9.912300e-01 9.298632e-01 9.298630e-01 9.152022e-01 7.904029e-01 
7.672696e-01 7.672647e-01 6.878651e-01 6.850568e-01 6.850481e-01 
6.580635e-01 6.580601e-01 1.990585e-01 1.980031e-01 1.824026e-01 
1.823966e-01 1.823268e-01 1.823258e-01 2.506517e-03 2.467177e-03 
-3.423005e-05 -3.471384e-05 -9.566820e-05 -9.566965e-05 -4.318641e-04 
-4.321293e-04 -4.431387e-04 -4.435134e-04 
17 enviroment orbitals kept frozen.
rks_ao.ne_frozen =  34
Set gradient conv threshold to 3.16228e-05
tot grids = 154128
init E= -486.222279410756
HOMO:  0.06121145614547999 LUMO:  0.06841109976949034
Fermi energy:       0.0648575231
[2.     2.     2.     2.     2.     2.     2.     2.     2.     2.
 2.     2.     2.     2.     2.     2.     1.9998 1.9996 1.9995 1.9995
 1.9993 1.9992 1.9949 1.3493 0.6589]
entropy correction =  -0.012964540797243948
cycle= 1 E= -482.297007181679  delta_E= 3.93  |g|= 0.00348  |ddm|= 0.00448
HOMO:  0.06113561722018736 LUMO:  0.0684862278308307
Fermi energy:       0.0648575491
[2.     2.     2.     2.     2.     2.     2.     2.     2.     2.
 2.     2.     2.     2.     2.     2.     1.9998 1.9996 1.9995 1.9995
 1.9994 1.9992 1.9949 1.3559 0.6523]
entropy correction =  -0.012917121728439463
cycle= 2 E= -482.29558937408  delta_E= 0.00142  |g|= 0.0759  |ddm|= 0.0976
HOMO:  0.06120817659506463 LUMO:  0.06840744317167936
Fermi energy:       0.0648540865
[2.     2.     2.     2.     2.     2.     2.     2.     2.     2.
 2.     2.     2.     2.     2.     2.     1.9998 1.9996 1.9995 1.9995
 1.9993 1.9992 1.9949 1.3493 0.6589]
entropy correction =  -0.012964846013305248
cycle= 3 E= -482.297010165293  delta_E= -0.00142  |g|= 5.82e-05  |ddm|= 0.0933
HOMO:  0.061213884557646675 LUMO:  0.06841331053116109
Fermi energy:       0.0648598230
[2.     2.     2.     2.     2.     2.     2.     2.     2.     2.
 2.     2.     2.     2.     2.     2.     1.9998 1.9996 1.9995 1.9995
 1.9993 1.9992 1.9949 1.3493 0.6589]
entropy correction =  -0.012964500536481429
cycle= 4 E= -482.297010164499  delta_E= 7.94e-10  |g|= 8.4e-05  |ddm|= 0.000109
HOMO:  0.06121009138140557 LUMO:  0.06840933894416557
Fermi energy:       0.0648559722
[2.     2.     2.     2.     2.     2.     2.     2.     2.     2.
 2.     2.     2.     2.     2.     2.     1.9998 1.9996 1.9995 1.9995
 1.9993 1.9992 1.9949 1.3492 0.6589]
entropy correction =  -0.012964739579197746
cycle= 5 E= -482.2970101658  delta_E= -1.3e-09  |g|= 9.43e-06  |ddm|= 7.42e-05
HOMO:  0.06121041210442227 LUMO:  0.06840966800954981
Fermi energy:       0.0648562951
[2.     2.     2.     2.     2.     2.     2.     2.     2.     2.
 2.     2.     2.     2.     2.     2.     1.9998 1.9996 1.9995 1.9995
 1.9993 1.9992 1.9949 1.3492 0.6589]
entropy correction =  -0.012964725636545067
cycle= 6 E= -482.297010165801  delta_E= -1.14e-13  |g|= 1.47e-06  |ddm|= 1.29e-05
HOMO:  0.06121036944383519 LUMO:  0.06840962733519695
Fermi energy:       0.0648562544
[2.     2.     2.     2.     2.     2.     2.     2.     2.     2.
 2.     2.     2.     2.     2.     2.     1.9998 1.9996 1.9995 1.9995
 1.9993 1.9992 1.9949 1.3492 0.6589]
entropy correction =  -0.012964730585046429
Extra cycle  E= -482.2970101655  delta_E= 3.01e-10  |g|= 3.27e-05  |ddm|= 4.24e-05
<class 'pydmfet.qcwrap.pyscf_rks_ao.rks_ao'> does not have attributes  coredm dm_guess add_coredm_ext_energy ne_frozen vext_1e
entropy correction =  -0.012964730585046429
level shift energy: 1.1217860771133188e-07
|P_frag + P_bath - P_ref| / N =  1.7839539604137807e-06
max(P_frag + P_bath - P_ref) =  5.444987772262877e-05
