#INFO: **** input file is /tigress/xingz/pydmfet/examples/research/proj/Cu2/Cu2_uks.py ****
from pydmfet import proj_ao
from pydmfet.qcwrap.pyscf_rks_ao import rks_ao
from pyscf import gto,scf
import numpy as np
from pyscf.tools import molden
from pyscf import lo
from pyscf.lo import iao,orth
from functools import reduce
import math

bas ='lanl2dz'
ecp = 'lanl2dz'
temp = 0.005

mol = gto.Mole()
mol.atom = open('Cu2.xyz').read()
mol.basis = bas
mol.ecp = ecp
mol.charge = -2
mol.spin = 2
mol.build(max_memory = 4000, verbose=4)


mf = scf.UKS(mol)
#mf = rks_ao(mol,smear_sigma = temp)
mf.xc = "pbe,pbe"
mf.max_cycle = 50

DMguess = None
mf.scf(dm0=DMguess)
#INFO: ******************** input file end ********************


System: uname_result(system='Linux', node='tigercpu.princeton.edu', release='3.10.0-957.27.2.el7.x86_64', version='#1 SMP Tue Jul 30 11:12:20 EDT 2019', machine='x86_64', processor='x86_64')  Threads 40
Python 3.7.0 (default, Jun 28 2018, 13:15:42) 
[GCC 7.2.0]
numpy 1.16.4  scipy 1.4.0.dev0+0f78e0f
Date: Sat Sep  7 13:13:54 2019
PySCF version 1.5
PySCF path  /home/xingz/.local/lib/python3.7/site-packages/pyscf

[CONFIG] conf_file None
[INPUT] verbose = 4
[INPUT] num. atoms = 8
[INPUT] num. electrons = 82
[INPUT] charge = -2
[INPUT] spin (= nelec alpha-beta = 2S) = 2
[INPUT] symmetry False subgroup None
[INPUT] Mole.unit = angstrom
[INPUT]  1 Cu    -0.441980000000   1.042360000000  -0.035730000000 AA   -0.835221152535   1.969774923202  -0.067519914431 Bohr
[INPUT]  2 Cl    -1.897990000000  -0.682570000000   0.075050000000 AA   -3.586681287163  -1.289870360844   0.141823945649 Bohr
[INPUT]  3 Cl    -2.090880000000   2.577820000000  -0.212080000000 AA   -3.951190559331   4.871373798426  -0.400773116498 Bohr
[INPUT]  4 Cl     1.158810000000   2.690810000000  -0.136080000000 AA    2.189833530407   5.084893953241  -0.257153931031 Bohr
[INPUT]  5 Cl     1.341650000000  -0.399560000000   0.136080000000 AA    2.535351055023  -0.755058970331   0.257153931031 Bohr
[INPUT]  6 Cu     2.942440000000   1.248890000000   0.035730000000 AA    5.560405737965   2.360060059708   0.067519914431 Bohr
[INPUT]  7 Cl     4.398440000000   2.973820000000  -0.075050000000 AA    8.311846975332   5.619705343754  -0.141823945649 Bohr
[INPUT]  8 Cl     4.591340000000  -0.286580000000   0.212080000000 AA    8.676375144761  -0.541557712778   0.400773116498 Bohr

nuclear repulsion = 451.217501293853
number of shells = 38
number of NR pGTOs = 162
number of NR cGTOs = 92
basis = lanl2dz
ecp = lanl2dz
CPU time:         4.70


******** <class 'pyscf.dft.uks.UKS'> flags ********
method = UKS-UHF
initial guess = minao
damping factor = 0
level shift factor = 0
DIIS = <class 'pyscf.scf.diis.CDIIS'>
DIIS start cycle = 1
DIIS space = 8
SCF tol = 1e-09
SCF gradient tol = None
max. SCF cycles = 50
direct_scf = False
chkfile to save SCF result = /tigress/xingz/pydmfet/examples/research/proj/Cu2/tmp9kb6te9a
max_memory 4000 MB (current use 64 MB)
number electrons alpha = 42  beta = 40
XC functionals = pbe,pbe
small_rho_cutoff = 1e-07
radial grids: 
    Treutler-Ahlrichs (JCP 102, 346 (M4)) radial grids
    
becke partition: Becke, JCP, 88, 2547 (1988)
pruning grids: <function nwchem_prune at 0x2b7757636950>
grids dens level: 3
symmetrized grids: False
atomic radii adjust function: <function treutler_atomic_radii_adjust at 0x2b77576368c8>
Set gradient conv threshold to 3.16228e-05
tot grids = 154128
init E= -467.462792451998
  alpha nocc = 42  HOMO = 0.228314375019575  LUMO = 0.39278747268557
  beta  nocc = 40  HOMO = 0.194917575635955  LUMO = 0.218748714370763

WARN: system HOMO 0.228314375019575 >= system LUMO 0.218748714370763

cycle= 1 E= -410.161019216301  delta_E= 57.3  |g|= 6.04  |ddm|= 21.7
  alpha nocc = 42  HOMO = -1.54541148071664  LUMO = -1.54054511101835
  beta  nocc = 40  HOMO = -1.57881583883833  LUMO = -1.56392660725234

WARN: system HOMO -1.54141158132279 >= system LUMO -1.56392660725234

cycle= 2 E= -401.6253481242  delta_E= 8.54  |g|= 5.62  |ddm|= 23.7
  alpha nocc = 42  HOMO = -0.0900126494983788  LUMO = -0.0868721328486879
  beta  nocc = 40  HOMO = -0.200071028340467  LUMO = -0.155611852274893

WARN: system HOMO -0.0764836304952213 >= system LUMO -0.155611852274893

cycle= 3 E= -467.183881479754  delta_E= -65.6  |g|= 3.87  |ddm|= 12.1
  alpha nocc = 42  HOMO = -0.175502458095542  LUMO = -0.0568706383169406
  beta  nocc = 40  HOMO = -0.177904650227847  LUMO = -0.171726323394808
cycle= 4 E= -479.441861631035  delta_E= -12.3  |g|= 2.21  |ddm|= 7.87
  alpha nocc = 42  HOMO = -0.0822170641013416  LUMO = 0.0851108960300501
  beta  nocc = 40  HOMO = -0.1012236964059  LUMO = -0.0767578405225432
cycle= 5 E= -480.732064371528  delta_E= -1.29  |g|= 1.62  |ddm|= 2.17
  alpha nocc = 42  HOMO = -0.0896199256729548  LUMO = 0.135561539034145

WARN: beta  nocc = 40  HOMO -0.0819952070123976 >= LUMO -0.0813703849520995

cycle= 6 E= -481.59339965849  delta_E= -0.861  |g|= 1.18  |ddm|= 1.16
  alpha nocc = 42  HOMO = -0.0555335804993115  LUMO = 0.153994691418577
  beta  nocc = 40  HOMO = -0.0594340536266289  LUMO = -0.0498945851527246
cycle= 7 E= -481.655745131324  delta_E= -0.0623  |g|= 1.18  |ddm|= 0.775
  alpha nocc = 42  HOMO = -0.0454056960940455  LUMO = 0.173648982785203
  beta  nocc = 40  HOMO = -0.048860703298332  LUMO = -0.034014701139107
cycle= 8 E= -481.792363463408  delta_E= -0.137  |g|= 1.01  |ddm|= 0.793
  alpha nocc = 42  HOMO = -0.0307873239746928  LUMO = 0.174587981488379
  beta  nocc = 40  HOMO = -0.0314426073386591  LUMO = -0.0225598720244715
cycle= 9 E= -481.982129316435  delta_E= -0.19  |g|= 0.845  |ddm|= 0.652
  alpha nocc = 42  HOMO = 0.0917920733983585  LUMO = 0.216030772620504
  beta  nocc = 40  HOMO = 0.0657069436151044  LUMO = 0.114009619917922
cycle= 10 E= -482.209370456056  delta_E= -0.227  |g|= 0.449  |ddm|= 1.19
  alpha nocc = 42  HOMO = 0.0539192693391489  LUMO = 0.214764596918735
  beta  nocc = 40  HOMO = 0.0434706886151026  LUMO = 0.0708082057032224
cycle= 11 E= -482.290510484478  delta_E= -0.0811  |g|= 0.108  |ddm|= 0.521
  alpha nocc = 42  HOMO = 0.0544096524244478  LUMO = 0.213698143612029
  beta  nocc = 40  HOMO = 0.0392014561814294  LUMO = 0.0674654573711865
cycle= 12 E= -482.289895005005  delta_E= 0.000615  |g|= 0.124  |ddm|= 0.249
  alpha nocc = 42  HOMO = 0.0491571627481512  LUMO = 0.213731364353299
  beta  nocc = 40  HOMO = 0.0361992377158873  LUMO = 0.0701611006548489
cycle= 13 E= -482.296335174801  delta_E= -0.00644  |g|= 0.0401  |ddm|= 0.16
  alpha nocc = 42  HOMO = 0.050735586108715  LUMO = 0.214166982143798
  beta  nocc = 40  HOMO = 0.0381474280209629  LUMO = 0.0715237027885694
cycle= 14 E= -482.296935746366  delta_E= -0.000601  |g|= 0.014  |ddm|= 0.0502
  alpha nocc = 42  HOMO = 0.0507045896724297  LUMO = 0.214183600487167
  beta  nocc = 40  HOMO = 0.0380636858848174  LUMO = 0.0714589439207551
cycle= 15 E= -482.297097461509  delta_E= -0.000162  |g|= 0.00393  |ddm|= 0.0293
  alpha nocc = 42  HOMO = 0.0504447599846816  LUMO = 0.214132406836133
  beta  nocc = 40  HOMO = 0.0379723259323842  LUMO = 0.0711752638280164
cycle= 16 E= -482.297103255606  delta_E= -5.79e-06  |g|= 0.00148  |ddm|= 0.00631
  alpha nocc = 42  HOMO = 0.0504129956155576  LUMO = 0.214129402436508
  beta  nocc = 40  HOMO = 0.0379678425351029  LUMO = 0.0711447908204493
cycle= 17 E= -482.297105189009  delta_E= -1.93e-06  |g|= 0.000351  |ddm|= 0.00337
  alpha nocc = 42  HOMO = 0.0504114250893521  LUMO = 0.21413118015527
  beta  nocc = 40  HOMO = 0.0379774859593841  LUMO = 0.0711426702381383
cycle= 18 E= -482.297105232174  delta_E= -4.32e-08  |g|= 0.000218  |ddm|= 0.000935
  alpha nocc = 42  HOMO = 0.0504123157610334  LUMO = 0.214131409856778
  beta  nocc = 40  HOMO = 0.0379811549168028  LUMO = 0.0711436997912968
cycle= 19 E= -482.297105276236  delta_E= -4.41e-08  |g|= 4.52e-05  |ddm|= 0.000426
  alpha nocc = 42  HOMO = 0.0504078350269476  LUMO = 0.214129927685764
  beta  nocc = 40  HOMO = 0.0379764794566491  LUMO = 0.07113847335431
cycle= 20 E= -482.297105277545  delta_E= -1.31e-09  |g|= 3.73e-06  |ddm|= 7.06e-05
  alpha nocc = 42  HOMO = 0.0504086235086026  LUMO = 0.2141298527364
  beta  nocc = 40  HOMO = 0.0379767464475288  LUMO = 0.0711391752853126
cycle= 21 E= -482.29710527752  delta_E= 2.47e-11  |g|= 8.22e-06  |ddm|= 1.91e-05
  alpha nocc = 42  HOMO = 0.0504079488958228  LUMO = 0.214129903783272
  beta  nocc = 40  HOMO = 0.0379769220919655  LUMO = 0.0711385918057494
Extra cycle  E= -482.297105277048  delta_E= 4.72e-10  |g|= 3.34e-05  |ddm|= 4.72e-05
converged SCF energy = -482.297105277048  <S^2> = 2.001839  2S+1 = 3.0012257
