#INFO: **** input file is /tigress/xingz/pydmfet/examples/research/C20/C20.py ****
from pydmfet import locints, sdmfet,oep,tools,dfet_ao,proj_ao
from pydmfet.qcwrap.pyscf_rks_ao import rks_ao
from pyscf import gto, scf, ao2mo
import numpy as np
from pyscf.tools import molden
import time
from pydmfet import dfet_ao
from pydmfet.dfet_ao import dfet

bas ='ccpvdz'
temp = 0.0


mol = gto.Mole()
mol.atom = open('C20.xyz').read()
mol.basis = bas
mol.charge = 0
mol.build(max_memory = 4000, verbose=4)


#mf = scf.RHF(mol)
mf = rks_ao(mol,smear_sigma = temp)
mf.xc = "hf"
mf.max_cycle = 50

DMguess = None
mf.scf(dm0=DMguess)

natoms = mol.natm
impAtom = np.zeros([natoms], dtype=int)
for i in range(10):
    impAtom[i] = 1


embed = proj_ao.proj_embed(mf,impAtom, Ne_env = 40)
#embed.lo_method = 'boys'
embed.pop_method = 'iao'
embed.pm_exponent = 4
embed.make_frozen_orbs(norb = 40)
embed.embedding_potential()

#INFO: ******************** input file end ********************


System: uname_result(system='Linux', node='tigercpu.princeton.edu', release='3.10.0-957.27.2.el7.x86_64', version='#1 SMP Tue Jul 30 11:12:20 EDT 2019', machine='x86_64', processor='x86_64')  Threads 40
Python 3.7.0 (default, Jun 28 2018, 13:15:42) 
[GCC 7.2.0]
numpy 1.16.4  scipy 1.4.0.dev0+0f78e0f
Date: Fri Aug 30 19:25:45 2019
PySCF version 1.5
PySCF path  /home/xingz/.local/lib/python3.7/site-packages/pyscf

[CONFIG] conf_file None
[INPUT] verbose = 4
[INPUT] num. atoms = 20
[INPUT] num. electrons = 80
[INPUT] charge = 0
[INPUT] spin (= nelec alpha-beta = 2S) = 0
[INPUT] symmetry False subgroup None
[INPUT] Mole.unit = angstrom
[INPUT]  1 C      0.000000000000   0.685950000000  -0.729760000000 AA    0.000000000000   1.296257635145  -1.379046536663 Bohr
[INPUT]  2 C      0.000000000000  -0.685950000000  -0.729760000000 AA    0.000000000000  -1.296257635145  -1.379046536663 Bohr
[INPUT]  3 C      0.000000000000  -1.440000000000  -1.892560000000 AA    0.000000000000  -2.721205619374  -3.576420074307 Bohr
[INPUT]  4 C      0.000000000000  -0.712450000000  -3.105130000000 AA    0.000000000000  -1.346335377446  -5.867845281171 Bohr
[INPUT]  5 C      0.000000000000   0.712450000000  -3.105130000000 AA    0.000000000000   1.346335377446  -5.867845281171 Bohr
[INPUT]  6 C      0.000000000000   1.440000000000  -1.892560000000 AA    0.000000000000   2.721205619374  -3.576420074307 Bohr
[INPUT]  7 H      0.000000000000  -2.521480000000  -1.870960000000 AA    0.000000000000  -4.764906628568  -3.535601990016 Bohr
[INPUT]  8 H      0.000000000000  -1.246150000000  -4.046500000000 AA    0.000000000000  -2.354882210127  -7.646776763053 Bohr
[INPUT]  9 H      0.000000000000   1.246150000000  -4.046500000000 AA    0.000000000000   2.354882210127  -7.646776763053 Bohr
[INPUT] 10 H      0.000000000000   2.521480000000  -1.870960000000 AA    0.000000000000   4.764906628568  -3.535601990016 Bohr
[INPUT] 11 C      0.000000000000   0.685950000000   0.729760000000 AA    0.000000000000   1.296257635145   1.379046536663 Bohr
[INPUT] 12 C      0.000000000000  -0.685950000000   0.729760000000 AA    0.000000000000  -1.296257635145   1.379046536663 Bohr
[INPUT] 13 C      0.000000000000  -1.440000000000   1.892560000000 AA    0.000000000000  -2.721205619374   3.576420074307 Bohr
[INPUT] 14 C      0.000000000000  -0.712450000000   3.105130000000 AA    0.000000000000  -1.346335377446   5.867845281171 Bohr
[INPUT] 15 C      0.000000000000   0.712450000000   3.105130000000 AA    0.000000000000   1.346335377446   5.867845281171 Bohr
[INPUT] 16 C      0.000000000000   1.440000000000   1.892560000000 AA    0.000000000000   2.721205619374   3.576420074307 Bohr
[INPUT] 17 H      0.000000000000  -2.521480000000   1.870960000000 AA    0.000000000000  -4.764906628568   3.535601990016 Bohr
[INPUT] 18 H      0.000000000000  -1.246150000000   4.046500000000 AA    0.000000000000  -2.354882210127   7.646776763053 Bohr
[INPUT] 19 H      0.000000000000   1.246150000000   4.046500000000 AA    0.000000000000   2.354882210127   7.646776763053 Bohr
[INPUT] 20 H      0.000000000000   2.521480000000   1.870960000000 AA    0.000000000000   4.764906628568   3.535601990016 Bohr

nuclear repulsion = 593.488366878612
number of shells = 84
number of NR pGTOs = 368
number of NR cGTOs = 208
basis = ccpvdz
ecp = {}
CPU time:         3.88
rks_ao.ne_frozen =  0


******** <class 'pydmfet.qcwrap.pyscf_rks_ao.rks_ao'> flags ********
method = rks_ao-RKS-RHF
initial guess = minao
damping factor = 0
level shift factor = 0
DIIS = <class 'pyscf.scf.diis.CDIIS'>
DIIS start cycle = 1
DIIS space = 8
SCF tol = 1e-09
SCF gradient tol = None
max. SCF cycles = 50
direct_scf = False
chkfile to save SCF result = /tigress/xingz/pydmfet/examples/research/C20/tmpfhhh9l0v
max_memory 4000 MB (current use 66 MB)
XC functionals = hf
small_rho_cutoff = 1e-07
radial grids: 
    Treutler-Ahlrichs (JCP 102, 346 (M4)) radial grids
    
becke partition: Becke, JCP, 88, 2547 (1988)
pruning grids: <function nwchem_prune at 0x2aca8b8e3400>
grids dens level: 3
symmetrized grids: False
atomic radii adjust function: <function treutler_atomic_radii_adjust at 0x2aca8b8e3378>
Set gradient conv threshold to 3.16228e-05
tot grids = 247016
init E= -464.506509339174
HOMO:  -0.21487529467316702 LUMO:  -0.06391235744570001
Fermi energy:      -0.2148752947
[2. 2. 2. 2. 2. 2. 2. 2. 2. 2. 2. 2. 2. 2. 2. 2. 2. 2. 2. 2. 2. 2. 2. 2.
 2. 2. 2. 2. 2. 2. 2. 2. 2. 2. 2. 2. 2. 2. 2. 2.]
cycle= 1 E= -458.916262494594  delta_E= 5.59  |g|= 0.547  |ddm|= 5.11
HOMO:  -0.2480822865755769 LUMO:  0.08204990919795578
Fermi energy:      -0.2480822866
[2. 2. 2. 2. 2. 2. 2. 2. 2. 2. 2. 2. 2. 2. 2. 2. 2. 2. 2. 2. 2. 2. 2. 2.
 2. 2. 2. 2. 2. 2. 2. 2. 2. 2. 2. 2. 2. 2. 2. 2.]
cycle= 2 E= -459.02741279574  delta_E= -0.111  |g|= 0.153  |ddm|= 1.26
HOMO:  -0.2734925577684919 LUMO:  0.06471540966934163
Fermi energy:      -0.2734925578
[2. 2. 2. 2. 2. 2. 2. 2. 2. 2. 2. 2. 2. 2. 2. 2. 2. 2. 2. 2. 2. 2. 2. 2.
 2. 2. 2. 2. 2. 2. 2. 2. 2. 2. 2. 2. 2. 2. 2. 2.]
cycle= 3 E= -459.035545722621  delta_E= -0.00813  |g|= 0.0779  |ddm|= 0.402
HOMO:  -0.26091059242090053 LUMO:  0.07841121155149498
Fermi energy:      -0.2609105924
[2. 2. 2. 2. 2. 2. 2. 2. 2. 2. 2. 2. 2. 2. 2. 2. 2. 2. 2. 2. 2. 2. 2. 2.
 2. 2. 2. 2. 2. 2. 2. 2. 2. 2. 2. 2. 2. 2. 2. 2.]
cycle= 4 E= -459.037160350637  delta_E= -0.00161  |g|= 0.0198  |ddm|= 0.126
HOMO:  -0.2612034539550448 LUMO:  0.07805853943225619
Fermi energy:      -0.2612034540
[2. 2. 2. 2. 2. 2. 2. 2. 2. 2. 2. 2. 2. 2. 2. 2. 2. 2. 2. 2. 2. 2. 2. 2.
 2. 2. 2. 2. 2. 2. 2. 2. 2. 2. 2. 2. 2. 2. 2. 2.]
cycle= 5 E= -459.037271159225  delta_E= -0.000111  |g|= 0.00395  |ddm|= 0.0217
HOMO:  -0.26166201865604216 LUMO:  0.07794197473036134
Fermi energy:      -0.2616620187
[2. 2. 2. 2. 2. 2. 2. 2. 2. 2. 2. 2. 2. 2. 2. 2. 2. 2. 2. 2. 2. 2. 2. 2.
 2. 2. 2. 2. 2. 2. 2. 2. 2. 2. 2. 2. 2. 2. 2. 2.]
cycle= 6 E= -459.03727788828  delta_E= -6.73e-06  |g|= 0.000842  |ddm|= 0.00705
HOMO:  -0.2615932979554193 LUMO:  0.07808232525149719
Fermi energy:      -0.2615932980
[2. 2. 2. 2. 2. 2. 2. 2. 2. 2. 2. 2. 2. 2. 2. 2. 2. 2. 2. 2. 2. 2. 2. 2.
 2. 2. 2. 2. 2. 2. 2. 2. 2. 2. 2. 2. 2. 2. 2. 2.]
cycle= 7 E= -459.037278581557  delta_E= -6.93e-07  |g|= 0.000422  |ddm|= 0.00198
HOMO:  -0.2616198363340023 LUMO:  0.07810184629242804
Fermi energy:      -0.2616198363
[2. 2. 2. 2. 2. 2. 2. 2. 2. 2. 2. 2. 2. 2. 2. 2. 2. 2. 2. 2. 2. 2. 2. 2.
 2. 2. 2. 2. 2. 2. 2. 2. 2. 2. 2. 2. 2. 2. 2. 2.]
cycle= 8 E= -459.037278807092  delta_E= -2.26e-07  |g|= 0.000174  |ddm|= 0.00123
HOMO:  -0.2616448749017573 LUMO:  0.07808697896852265
Fermi energy:      -0.2616448749
[2. 2. 2. 2. 2. 2. 2. 2. 2. 2. 2. 2. 2. 2. 2. 2. 2. 2. 2. 2. 2. 2. 2. 2.
 2. 2. 2. 2. 2. 2. 2. 2. 2. 2. 2. 2. 2. 2. 2. 2.]
cycle= 9 E= -459.037278853954  delta_E= -4.69e-08  |g|= 5.43e-05  |ddm|= 0.000667
HOMO:  -0.26164319353694354 LUMO:  0.07808734541274154
Fermi energy:      -0.2616431935
[2. 2. 2. 2. 2. 2. 2. 2. 2. 2. 2. 2. 2. 2. 2. 2. 2. 2. 2. 2. 2. 2. 2. 2.
 2. 2. 2. 2. 2. 2. 2. 2. 2. 2. 2. 2. 2. 2. 2. 2.]
cycle= 10 E= -459.037278858595  delta_E= -4.64e-09  |g|= 1.63e-05  |ddm|= 0.000223
HOMO:  -0.2616431996733759 LUMO:  0.07808562530537445
Fermi energy:      -0.2616431997
[2. 2. 2. 2. 2. 2. 2. 2. 2. 2. 2. 2. 2. 2. 2. 2. 2. 2. 2. 2. 2. 2. 2. 2.
 2. 2. 2. 2. 2. 2. 2. 2. 2. 2. 2. 2. 2. 2. 2. 2.]
cycle= 11 E= -459.037278859008  delta_E= -4.14e-10  |g|= 4.3e-06  |ddm|= 7.49e-05
HOMO:  -0.2616432443753764 LUMO:  0.07808538768253026
Fermi energy:      -0.2616432444
[2. 2. 2. 2. 2. 2. 2. 2. 2. 2. 2. 2. 2. 2. 2. 2. 2. 2. 2. 2. 2. 2. 2. 2.
 2. 2. 2. 2. 2. 2. 2. 2. 2. 2. 2. 2. 2. 2. 2. 2.]
Extra cycle  E= -459.037278859016  delta_E= -7.5e-12  |g|= 2.03e-06  |ddm|= 1.12e-05
converged SCF energy = -459.037278859016


******** <class 'pyscf.lo.pipek.PipekMezey'> flags ********
conv_tol = 1e-06
conv_tol_grad = None
max_cycle = 100
max_stepsize = 0.05
max_iters = 20
kf_interval = 5
kf_trust_region = 5
ah_start_tol = 1000000000.0
ah_start_cycle = 1
ah_level_shift = 0
ah_conv_tol = 1e-12
ah_lindep = 1e-14
ah_max_cycle = 40
ah_trust_region = 3
init_guess = atomic
pop_method = iao
Set conv_tol_grad to 0.000316228
macro= 1  f(x)= 2.0675042096214  delta_f= 2.0675  |g|= 1.287  4 KF 20 Hx
macro= 2  f(x)= 2.9843776616519  delta_f= 0.916873  |g|= 1.74741  4 KF 20 Hx
macro= 3  f(x)= 3.531339334886  delta_f= 0.546962  |g|= 1.98674  4 KF 20 Hx
macro= 4  f(x)= 4.0162217015346  delta_f= 0.484882  |g|= 2.26425  4 KF 20 Hx
macro= 5  f(x)= 4.4118790892762  delta_f= 0.395657  |g|= 2.17679  4 KF 20 Hx
macro= 6  f(x)= 4.9841806864275  delta_f= 0.572302  |g|= 2.30324  4 KF 20 Hx
macro= 7  f(x)= 5.9401273048928  delta_f= 0.955947  |g|= 2.37335  4 KF 20 Hx
macro= 8  f(x)= 7.5747944416827  delta_f= 1.63467  |g|= 2.36389  4 KF 20 Hx
macro= 9  f(x)= 9.0569421057555  delta_f= 1.48215  |g|= 2.86253  4 KF 20 Hx
macro= 10  f(x)= 9.6868682250184  delta_f= 0.629926  |g|= 1.78142  4 KF 20 Hx
macro= 11  f(x)= 10.235424876087  delta_f= 0.548557  |g|= 2.80667  4 KF 20 Hx
macro= 12  f(x)= 10.918081501917  delta_f= 0.682657  |g|= 2.25914  4 KF 20 Hx
macro= 13  f(x)= 11.19775785203  delta_f= 0.279676  |g|= 2.76613  4 KF 20 Hx
macro= 14  f(x)= 11.496729647316  delta_f= 0.298972  |g|= 3.1583  4 KF 20 Hx
macro= 15  f(x)= 11.985866807214  delta_f= 0.489137  |g|= 3.12449  4 KF 20 Hx
macro= 16  f(x)= 12.799408682379  delta_f= 0.813542  |g|= 2.72025  4 KF 20 Hx
macro= 17  f(x)= 15.596614307171  delta_f= 2.79721  |g|= 2.52009  4 KF 20 Hx
macro= 18  f(x)= 16.333482999041  delta_f= 0.736869  |g|= 1.70448  4 KF 20 Hx
macro= 19  f(x)= 16.761408911483  delta_f= 0.427926  |g|= 1.76641  4 KF 20 Hx
macro= 20  f(x)= 17.258565626737  delta_f= 0.497157  |g|= 1.20225  4 KF 20 Hx
macro= 21  f(x)= 17.566717949587  delta_f= 0.308152  |g|= 0.809125  3 KF 20 Hx
macro= 22  f(x)= 17.872579891586  delta_f= 0.305862  |g|= 0.832636  4 KF 20 Hx
macro= 23  f(x)= 18.040055917832  delta_f= 0.167476  |g|= 0.678244  3 KF 20 Hx
macro= 24  f(x)= 18.164818414392  delta_f= 0.124762  |g|= 0.978123  3 KF 20 Hx
macro= 25  f(x)= 18.449415709365  delta_f= 0.284597  |g|= 1.21237  4 KF 20 Hx
macro= 26  f(x)= 18.719380737519  delta_f= 0.269965  |g|= 0.679074  3 KF 20 Hx
macro= 27  f(x)= 19.208645001288  delta_f= 0.489264  |g|= 0.953578  4 KF 20 Hx
macro= 28  f(x)= 19.55214006061  delta_f= 0.343495  |g|= 0.582117  4 KF 21 Hx
macro= 29  f(x)= 19.584489609418  delta_f= 0.0323495  |g|= 0.537618  3 KF 21 Hx
macro= 30  f(x)= 19.627091819619  delta_f= 0.0426022  |g|= 0.550955  4 KF 21 Hx
macro= 31  f(x)= 19.678213624899  delta_f= 0.0511218  |g|= 0.608556  3 KF 20 Hx
macro= 32  f(x)= 19.767301426962  delta_f= 0.0890878  |g|= 0.811245  4 KF 20 Hx
macro= 33  f(x)= 19.915993685715  delta_f= 0.148692  |g|= 0.872861  3 KF 20 Hx
macro= 34  f(x)= 19.994675723738  delta_f= 0.078682  |g|= 0.679887  3 KF 20 Hx
macro= 35  f(x)= 20.030601674379  delta_f= 0.035926  |g|= 0.524568  3 KF 21 Hx
macro= 36  f(x)= 20.058919527236  delta_f= 0.0283179  |g|= 0.420829  4 KF 21 Hx
macro= 37  f(x)= 20.107696214478  delta_f= 0.0487767  |g|= 0.45764  4 KF 21 Hx
macro= 38  f(x)= 20.132030715151  delta_f= 0.0243345  |g|= 0.439071  3 KF 21 Hx
macro= 39  f(x)= 20.1469440282  delta_f= 0.0149133  |g|= 0.448735  3 KF 21 Hx
macro= 40  f(x)= 20.181683585794  delta_f= 0.0347396  |g|= 0.416759  4 KF 21 Hx
macro= 41  f(x)= 20.227120315068  delta_f= 0.0454367  |g|= 0.424664  4 KF 21 Hx
macro= 42  f(x)= 20.232543553806  delta_f= 0.00542324  |g|= 0.458746  3 KF 21 Hx
macro= 43  f(x)= 20.245258554601  delta_f= 0.012715  |g|= 0.455465  4 KF 21 Hx
macro= 44  f(x)= 20.267824811244  delta_f= 0.0225663  |g|= 0.440966  4 KF 21 Hx
macro= 45  f(x)= 20.288100158896  delta_f= 0.0202753  |g|= 0.483287  3 KF 21 Hx
macro= 46  f(x)= 20.310938037009  delta_f= 0.0228379  |g|= 0.482005  3 KF 21 Hx
macro= 47  f(x)= 20.326135421436  delta_f= 0.0151974  |g|= 0.478753  4 KF 21 Hx
macro= 48  f(x)= 20.32909252471  delta_f= 0.0029571  |g|= 0.471766  3 KF 21 Hx
macro= 49  f(x)= 20.341015445366  delta_f= 0.0119229  |g|= 0.482966  3 KF 21 Hx
macro= 50  f(x)= 20.350747852345  delta_f= 0.00973241  |g|= 0.480664  3 KF 21 Hx
macro= 51  f(x)= 20.369947166137  delta_f= 0.0191993  |g|= 0.41553  4 KF 21 Hx
macro= 52  f(x)= 20.385273872599  delta_f= 0.0153267  |g|= 0.389717  3 KF 21 Hx
macro= 53  f(x)= 20.403003396811  delta_f= 0.0177295  |g|= 0.405859  3 KF 21 Hx
macro= 54  f(x)= 20.433243763404  delta_f= 0.0302404  |g|= 0.439893  4 KF 21 Hx
macro= 55  f(x)= 20.444261226727  delta_f= 0.0110175  |g|= 0.466261  3 KF 21 Hx
macro= 56  f(x)= 20.457894361125  delta_f= 0.0136331  |g|= 0.466267  3 KF 21 Hx
macro= 57  f(x)= 20.473405785723  delta_f= 0.0155114  |g|= 0.437788  4 KF 21 Hx
macro= 58  f(x)= 20.490919123157  delta_f= 0.0175133  |g|= 0.440827  4 KF 21 Hx
macro= 59  f(x)= 20.512408938171  delta_f= 0.0214898  |g|= 0.450059  4 KF 21 Hx
macro= 60  f(x)= 20.536507305567  delta_f= 0.0240984  |g|= 0.492081  4 KF 21 Hx
macro= 61  f(x)= 20.557659539539  delta_f= 0.0211522  |g|= 0.493856  4 KF 21 Hx
macro= 62  f(x)= 20.583703907519  delta_f= 0.0260444  |g|= 0.497337  4 KF 21 Hx
macro= 63  f(x)= 20.601679617292  delta_f= 0.0179757  |g|= 0.4971  4 KF 21 Hx
macro= 64  f(x)= 20.625437566683  delta_f= 0.0237579  |g|= 0.508601  3 KF 21 Hx
macro= 65  f(x)= 20.645811914507  delta_f= 0.0203743  |g|= 0.474599  4 KF 21 Hx
macro= 66  f(x)= 20.663047343425  delta_f= 0.0172354  |g|= 0.474818  3 KF 21 Hx
macro= 67  f(x)= 20.680762396693  delta_f= 0.0177151  |g|= 0.46929  3 KF 21 Hx
macro= 68  f(x)= 20.706795274294  delta_f= 0.0260329  |g|= 0.44208  4 KF 21 Hx
macro= 69  f(x)= 20.732789461735  delta_f= 0.0259942  |g|= 0.441049  3 KF 21 Hx
macro= 70  f(x)= 20.764625425533  delta_f= 0.031836  |g|= 0.447543  4 KF 21 Hx
macro= 71  f(x)= 20.79218703244  delta_f= 0.0275616  |g|= 0.529189  4 KF 21 Hx
macro= 72  f(x)= 20.818412534887  delta_f= 0.0262255  |g|= 0.521346  4 KF 21 Hx
macro= 73  f(x)= 20.847961323553  delta_f= 0.0295488  |g|= 0.499776  4 KF 21 Hx
macro= 74  f(x)= 20.914719680635  delta_f= 0.0667584  |g|= 0.431311  4 KF 21 Hx
macro= 75  f(x)= 20.997124449689  delta_f= 0.0824048  |g|= 0.449804  3 KF 21 Hx
macro= 76  f(x)= 21.052154634363  delta_f= 0.0550302  |g|= 0.531706  4 KF 21 Hx
macro= 77  f(x)= 21.085912457268  delta_f= 0.0337578  |g|= 0.551573  4 KF 21 Hx
macro= 78  f(x)= 21.133239404769  delta_f= 0.0473269  |g|= 0.558578  4 KF 21 Hx
macro= 79  f(x)= 21.178030985746  delta_f= 0.0447916  |g|= 0.565185  4 KF 21 Hx
macro= 80  f(x)= 21.230540215647  delta_f= 0.0525092  |g|= 0.58752  4 KF 21 Hx
macro= 81  f(x)= 21.267260419071  delta_f= 0.0367202  |g|= 0.646094  4 KF 20 Hx
macro= 82  f(x)= 21.2921517204  delta_f= 0.0248913  |g|= 0.664788  4 KF 20 Hx
macro= 83  f(x)= 21.308055570314  delta_f= 0.0159038  |g|= 0.686866  4 KF 20 Hx
macro= 84  f(x)= 21.331627373861  delta_f= 0.0235718  |g|= 0.683562  3 KF 20 Hx
macro= 85  f(x)= 21.349709181021  delta_f= 0.0180818  |g|= 0.672954  3 KF 20 Hx
macro= 86  f(x)= 21.367581200247  delta_f= 0.017872  |g|= 0.692858  3 KF 20 Hx
macro= 87  f(x)= 21.424625214652  delta_f= 0.057044  |g|= 0.673946  4 KF 20 Hx
macro= 88  f(x)= 21.504296748391  delta_f= 0.0796715  |g|= 0.680004  4 KF 20 Hx
macro= 89  f(x)= 21.617164097115  delta_f= 0.112867  |g|= 0.701174  4 KF 20 Hx
macro= 90  f(x)= 21.660552874571  delta_f= 0.0433888  |g|= 0.670088  4 KF 20 Hx
macro= 91  f(x)= 21.682310139439  delta_f= 0.0217573  |g|= 0.660252  4 KF 20 Hx
macro= 92  f(x)= 21.709968321916  delta_f= 0.0276582  |g|= 0.632703  3 KF 20 Hx
macro= 93  f(x)= 21.729709725111  delta_f= 0.0197414  |g|= 0.582128  3 KF 21 Hx
macro= 94  f(x)= 21.771478587996  delta_f= 0.0417689  |g|= 0.557524  3 KF 21 Hx
macro= 95  f(x)= 21.790722832828  delta_f= 0.0192442  |g|= 0.489253  3 KF 21 Hx
macro= 96  f(x)= 21.830527141144  delta_f= 0.0398043  |g|= 0.456006  4 KF 21 Hx
macro= 97  f(x)= 21.870322827656  delta_f= 0.0397957  |g|= 0.513954  4 KF 21 Hx
macro= 98  f(x)= 21.903595336819  delta_f= 0.0332725  |g|= 0.549194  4 KF 21 Hx
macro= 99  f(x)= 21.966041067084  delta_f= 0.0624457  |g|= 0.551394  4 KF 21 Hx
macro= 100  f(x)= 21.982787019069  delta_f= 0.016746  |g|= 0.51363  3 KF 21 Hx
macro X = 100  f(x)= 21.982787019069  |g|= 0.51363  200 intor 368 KF 2078 Hx
  sorted Mulliken popupaltion: 1.0 for fully occupied
1.000123e+00 1.000080e+00 9.999436e-01 9.995980e-01 9.993462e-01 
9.991397e-01 9.989825e-01 9.989469e-01 9.974624e-01 9.921921e-01 
9.872018e-01 9.726198e-01 9.416109e-01 9.364565e-01 9.168423e-01 
8.629159e-01 6.163563e-01 5.580244e-01 5.369029e-01 5.074903e-01 
5.073948e-01 4.901636e-01 4.507576e-01 4.429742e-01 1.805965e-01 
6.570218e-02 5.686006e-02 5.050957e-03 4.103604e-03 3.048043e-03 
1.792365e-03 8.633104e-04 7.225771e-04 5.405260e-04 4.227058e-04 
2.269208e-04 -1.306709e-03 -2.737917e-03 -8.666953e-03 -2.074349e-02 
20 enviroment orbitals kept frozen.
rks_ao.ne_frozen =  40
Set gradient conv threshold to 3.16228e-05
tot grids = 247016
init E= -459.03727886261
HOMO:  -0.33582361276374967 LUMO:  0.0780856563091587
Fermi energy:      -0.3358236128
[2. 2. 2. 2. 2. 2. 2. 2. 2. 2. 2. 2. 2. 2. 2. 2. 2. 2. 2. 2.]
cycle= 1 E= -459.037367795412  delta_E= -8.89e-05  |g|= 1.99e-05  |ddm|= 4.13e-05
HOMO:  -0.33582306852477506 LUMO:  0.07808566773212847
Fermi energy:      -0.3358230685
[2. 2. 2. 2. 2. 2. 2. 2. 2. 2. 2. 2. 2. 2. 2. 2. 2. 2. 2. 2.]
cycle= 2 E= -459.037367795371  delta_E= 4.09e-11  |g|= 3.08e-06  |ddm|= 7.42e-06
HOMO:  -0.3358234357925569 LUMO:  0.07808559888237866
Fermi energy:      -0.3358234358
[2. 2. 2. 2. 2. 2. 2. 2. 2. 2. 2. 2. 2. 2. 2. 2. 2. 2. 2. 2.]
Extra cycle  E= -459.037367795381  delta_E= -1.02e-11  |g|= 1.22e-06  |ddm|= 2.6e-06
<class 'pydmfet.qcwrap.pyscf_rks_ao.rks_ao'> does not have attributes  add_coredm_ext_energy vext_1e ne_frozen dm_guess coredm
level shift energy: 8.893546062388458e-05
|P_frag + P_bath - P_ref| / N =  2.0015660189277182e-07
max(P_frag + P_bath - P_ref) =  5.347950305887965e-06
