#INFO: **** input file is /tigress/xingz/pydmfet/examples/research/C20/dmfet/C20.py ****
from pydmfet import locints, sdmfet,oep,tools,dfet_ao,proj_ao
from pydmfet.qcwrap.pyscf_rks_ao import rks_ao
from pyscf import gto, scf, ao2mo
import numpy as np
from pyscf.tools import molden
import time
from pydmfet import dfet_ao
from pydmfet.dfet_ao import dfet

bas ='ccpvdz'
temp = 0.005


mol = gto.Mole()
mol.atom = open('C20.xyz').read()
mol.basis = bas
mol.charge = 0
mol.build(max_memory = 4000, verbose=4)


#mf = scf.RHF(mol)
mf = rks_ao(mol,smear_sigma = temp)
mf.xc = "hf"
mf.max_cycle = 50

DMguess = None
mf.scf(dm0=DMguess)

natoms = mol.natm
impAtom = np.zeros([natoms], dtype=int)
for i in range(10):
    impAtom[i] = 1

ghost_frag = 1-impAtom
ghost_env = 1-ghost_frag

mol_frag = gto.Mole()
mol_frag.atom = tools.add_ghost(mol.atom, ghost_frag)
mol_frag.basis = bas
mol_frag.build(max_memory = 4000,verbose = 4)

mol_env = gto.Mole()
mol_env.atom = tools.add_ghost(mol.atom, ghost_env)
mol_env.basis =  bas
mol_env.build(max_memory = 4000,verbose = 4)

Ne_frag = 20
Ne_env = 20

boundary_atoms = None
boundary_atoms2 = None
boundary_atoms = np.zeros([natoms])
boundary_atoms2 =np.zeros([natoms])

boundary_atoms[10] = 1
boundary_atoms[11] = 1
boundary_atoms2[0] = 1
boundary_atoms2[1] = 1

umat = None
#umat = np.load("umat.npy")

params = oep.OEPparams(algorithm = '2011', opt_method = 'L-BFGS-B', diffP_tol=1e-3, outer_maxit = 10)
params.options['ftol'] = 1e-9
params.options['gtol'] = 1e-3
params.options['maxiter'] = 50
params.options['svd_thresh'] = 1e-5

theDMFET = dfet.DFET(mf, mol_frag, mol_env,Ne_frag,Ne_env,\
                     boundary_atoms=boundary_atoms, boundary_atoms2=boundary_atoms2,umat = umat,\
                     oep_params=params, smear_sigma=temp, ecw_method = 'hf',mf_method = mf.xc, plot_dens=True)

umat = theDMFET.embedding_potential()

#INFO: ******************** input file end ********************


System: uname_result(system='Linux', node='tigercpu.princeton.edu', release='3.10.0-957.27.2.el7.x86_64', version='#1 SMP Tue Jul 30 11:12:20 EDT 2019', machine='x86_64', processor='x86_64')  Threads 40
Python 3.7.0 (default, Jun 28 2018, 13:15:42) 
[GCC 7.2.0]
numpy 1.16.4  scipy 1.4.0.dev0+0f78e0f
Date: Fri Aug 30 20:02:58 2019
PySCF version 1.5
PySCF path  /home/xingz/.local/lib/python3.7/site-packages/pyscf

[CONFIG] conf_file None
[INPUT] verbose = 4
[INPUT] num. atoms = 20
[INPUT] num. electrons = 80
[INPUT] charge = 0
[INPUT] spin (= nelec alpha-beta = 2S) = 0
[INPUT] symmetry False subgroup None
[INPUT] Mole.unit = angstrom
[INPUT]  1 C      0.000000000000   0.685950000000  -0.729760000000 AA    0.000000000000   1.296257635145  -1.379046536663 Bohr
[INPUT]  2 C      0.000000000000  -0.685950000000  -0.729760000000 AA    0.000000000000  -1.296257635145  -1.379046536663 Bohr
[INPUT]  3 C      0.000000000000  -1.440000000000  -1.892560000000 AA    0.000000000000  -2.721205619374  -3.576420074307 Bohr
[INPUT]  4 C      0.000000000000  -0.712450000000  -3.105130000000 AA    0.000000000000  -1.346335377446  -5.867845281171 Bohr
[INPUT]  5 C      0.000000000000   0.712450000000  -3.105130000000 AA    0.000000000000   1.346335377446  -5.867845281171 Bohr
[INPUT]  6 C      0.000000000000   1.440000000000  -1.892560000000 AA    0.000000000000   2.721205619374  -3.576420074307 Bohr
[INPUT]  7 H      0.000000000000  -2.521480000000  -1.870960000000 AA    0.000000000000  -4.764906628568  -3.535601990016 Bohr
[INPUT]  8 H      0.000000000000  -1.246150000000  -4.046500000000 AA    0.000000000000  -2.354882210127  -7.646776763053 Bohr
[INPUT]  9 H      0.000000000000   1.246150000000  -4.046500000000 AA    0.000000000000   2.354882210127  -7.646776763053 Bohr
[INPUT] 10 H      0.000000000000   2.521480000000  -1.870960000000 AA    0.000000000000   4.764906628568  -3.535601990016 Bohr
[INPUT] 11 C      0.000000000000   0.685950000000   0.729760000000 AA    0.000000000000   1.296257635145   1.379046536663 Bohr
[INPUT] 12 C      0.000000000000  -0.685950000000   0.729760000000 AA    0.000000000000  -1.296257635145   1.379046536663 Bohr
[INPUT] 13 C      0.000000000000  -1.440000000000   1.892560000000 AA    0.000000000000  -2.721205619374   3.576420074307 Bohr
[INPUT] 14 C      0.000000000000  -0.712450000000   3.105130000000 AA    0.000000000000  -1.346335377446   5.867845281171 Bohr
[INPUT] 15 C      0.000000000000   0.712450000000   3.105130000000 AA    0.000000000000   1.346335377446   5.867845281171 Bohr
[INPUT] 16 C      0.000000000000   1.440000000000   1.892560000000 AA    0.000000000000   2.721205619374   3.576420074307 Bohr
[INPUT] 17 H      0.000000000000  -2.521480000000   1.870960000000 AA    0.000000000000  -4.764906628568   3.535601990016 Bohr
[INPUT] 18 H      0.000000000000  -1.246150000000   4.046500000000 AA    0.000000000000  -2.354882210127   7.646776763053 Bohr
[INPUT] 19 H      0.000000000000   1.246150000000   4.046500000000 AA    0.000000000000   2.354882210127   7.646776763053 Bohr
[INPUT] 20 H      0.000000000000   2.521480000000   1.870960000000 AA    0.000000000000   4.764906628568   3.535601990016 Bohr

nuclear repulsion = 593.488366878612
number of shells = 84
number of NR pGTOs = 368
number of NR cGTOs = 208
basis = ccpvdz
ecp = {}
CPU time:         4.23
rks_ao.ne_frozen =  0


******** <class 'pydmfet.qcwrap.pyscf_rks_ao.rks_ao'> flags ********
method = rks_ao-RKS-RHF
initial guess = minao
damping factor = 0
level shift factor = 0
DIIS = <class 'pyscf.scf.diis.CDIIS'>
DIIS start cycle = 1
DIIS space = 8
SCF tol = 1e-09
SCF gradient tol = None
max. SCF cycles = 50
direct_scf = False
chkfile to save SCF result = /tigress/xingz/pydmfet/examples/research/C20/dmfet/tmp5dibbklr
max_memory 4000 MB (current use 66 MB)
XC functionals = hf
small_rho_cutoff = 1e-07
radial grids: 
    Treutler-Ahlrichs (JCP 102, 346 (M4)) radial grids
    
becke partition: Becke, JCP, 88, 2547 (1988)
pruning grids: <function nwchem_prune at 0x2b72d1f28400>
grids dens level: 3
symmetrized grids: False
atomic radii adjust function: <function treutler_atomic_radii_adjust at 0x2b72d1f28378>
Set gradient conv threshold to 3.16228e-05
tot grids = 247016
init E= -464.506509339174
HOMO:  -0.21487529467317218 LUMO:  -0.06391235744570363
Fermi energy:      -0.1394018095
[2. 2. 2. 2. 2. 2. 2. 2. 2. 2. 2. 2. 2. 2. 2. 2. 2. 2. 2. 2. 2. 2. 2. 2.
 2. 2. 2. 2. 2. 2. 2. 2. 2. 2. 2. 2. 2. 2. 2. 2.]
entropy correction =  -8.94374052516471e-08
cycle= 1 E= -458.916262398121  delta_E= 5.59  |g|= 0.57  |ddm|= 5.11
HOMO:  -0.24808223099417018 LUMO:  0.08204985509397283
Fermi energy:      -0.0605822310
[2. 2. 2. 2. 2. 2. 2. 2. 2. 2. 2. 2. 2. 2. 2. 2. 2. 2. 2. 2. 2. 2. 2. 2.
 2. 2. 2. 2. 2. 2. 2. 2. 2. 2. 2. 2. 2. 2. 2. 2.]
entropy correction =  0.0
cycle= 2 E= -459.027412794326  delta_E= -0.111  |g|= 0.157  |ddm|= 1.26
HOMO:  -0.27349256350913365 LUMO:  0.06471541258104574
Fermi energy:      -0.0859925635
[2. 2. 2. 2. 2. 2. 2. 2. 2. 2. 2. 2. 2. 2. 2. 2. 2. 2. 2. 2. 2. 2. 2. 2.
 2. 2. 2. 2. 2. 2. 2. 2. 2. 2. 2. 2. 2. 2. 2. 2.]
entropy correction =  0.0
cycle= 3 E= -459.035545721174  delta_E= -0.00813  |g|= 0.0834  |ddm|= 0.402
HOMO:  -0.26091059873955935 LUMO:  0.07841121505148993
Fermi energy:      -0.0734105987
[2. 2. 2. 2. 2. 2. 2. 2. 2. 2. 2. 2. 2. 2. 2. 2. 2. 2. 2. 2. 2. 2. 2. 2.
 2. 2. 2. 2. 2. 2. 2. 2. 2. 2. 2. 2. 2. 2. 2. 2.]
entropy correction =  0.0
cycle= 4 E= -459.037160350626  delta_E= -0.00161  |g|= 0.021  |ddm|= 0.126
HOMO:  -0.26120345499967457 LUMO:  0.07805854111320581
Fermi energy:      -0.0737034550
[2. 2. 2. 2. 2. 2. 2. 2. 2. 2. 2. 2. 2. 2. 2. 2. 2. 2. 2. 2. 2. 2. 2. 2.
 2. 2. 2. 2. 2. 2. 2. 2. 2. 2. 2. 2. 2. 2. 2. 2.]
entropy correction =  0.0
cycle= 5 E= -459.037271159219  delta_E= -0.000111  |g|= 0.004  |ddm|= 0.0217
HOMO:  -0.26166201813241713 LUMO:  0.07794197433673977
Fermi energy:      -0.0741620181
[2. 2. 2. 2. 2. 2. 2. 2. 2. 2. 2. 2. 2. 2. 2. 2. 2. 2. 2. 2. 2. 2. 2. 2.
 2. 2. 2. 2. 2. 2. 2. 2. 2. 2. 2. 2. 2. 2. 2. 2.]
entropy correction =  0.0
cycle= 6 E= -459.03727788828  delta_E= -6.73e-06  |g|= 0.00076  |ddm|= 0.00705
HOMO:  -0.2615932978453482 LUMO:  0.07808232524859178
Fermi energy:      -0.0740932978
[2. 2. 2. 2. 2. 2. 2. 2. 2. 2. 2. 2. 2. 2. 2. 2. 2. 2. 2. 2. 2. 2. 2. 2.
 2. 2. 2. 2. 2. 2. 2. 2. 2. 2. 2. 2. 2. 2. 2. 2.]
entropy correction =  0.0
cycle= 7 E= -459.037278581557  delta_E= -6.93e-07  |g|= 0.000364  |ddm|= 0.00198
HOMO:  -0.2616198364148081 LUMO:  0.07810184636003493
Fermi energy:      -0.0741198364
[2. 2. 2. 2. 2. 2. 2. 2. 2. 2. 2. 2. 2. 2. 2. 2. 2. 2. 2. 2. 2. 2. 2. 2.
 2. 2. 2. 2. 2. 2. 2. 2. 2. 2. 2. 2. 2. 2. 2. 2.]
entropy correction =  0.0
cycle= 8 E= -459.037278807092  delta_E= -2.26e-07  |g|= 0.000156  |ddm|= 0.00123
HOMO:  -0.2616448749239804 LUMO:  0.07808697898864105
Fermi energy:      -0.0741448749
[2. 2. 2. 2. 2. 2. 2. 2. 2. 2. 2. 2. 2. 2. 2. 2. 2. 2. 2. 2. 2. 2. 2. 2.
 2. 2. 2. 2. 2. 2. 2. 2. 2. 2. 2. 2. 2. 2. 2. 2.]
entropy correction =  0.0
cycle= 9 E= -459.037278853951  delta_E= -4.69e-08  |g|= 4.87e-05  |ddm|= 0.000667
HOMO:  -0.2616431935381156 LUMO:  0.0780873454142483
Fermi energy:      -0.0741431935
[2. 2. 2. 2. 2. 2. 2. 2. 2. 2. 2. 2. 2. 2. 2. 2. 2. 2. 2. 2. 2. 2. 2. 2.
 2. 2. 2. 2. 2. 2. 2. 2. 2. 2. 2. 2. 2. 2. 2. 2.]
entropy correction =  0.0
cycle= 10 E= -459.037278858596  delta_E= -4.65e-09  |g|= 1.58e-05  |ddm|= 0.000223
HOMO:  -0.2616431996737714 LUMO:  0.07808562530493451
Fermi energy:      -0.0741431997
[2. 2. 2. 2. 2. 2. 2. 2. 2. 2. 2. 2. 2. 2. 2. 2. 2. 2. 2. 2. 2. 2. 2. 2.
 2. 2. 2. 2. 2. 2. 2. 2. 2. 2. 2. 2. 2. 2. 2. 2.]
entropy correction =  0.0
cycle= 11 E= -459.037278859009  delta_E= -4.13e-10  |g|= 4.37e-06  |ddm|= 7.49e-05
HOMO:  -0.2616432443754973 LUMO:  0.07808538768242072
Fermi energy:      -0.0741432444
[2. 2. 2. 2. 2. 2. 2. 2. 2. 2. 2. 2. 2. 2. 2. 2. 2. 2. 2. 2. 2. 2. 2. 2.
 2. 2. 2. 2. 2. 2. 2. 2. 2. 2. 2. 2. 2. 2. 2. 2.]
entropy correction =  0.0
Extra cycle  E= -459.037278859015  delta_E= -5.91e-12  |g|= 2.07e-06  |ddm|= 1.12e-05
converged SCF energy = -459.037278859015
#INFO: **** input file is /tigress/xingz/pydmfet/examples/research/C20/dmfet/C20.py ****
from pydmfet import locints, sdmfet,oep,tools,dfet_ao,proj_ao
from pydmfet.qcwrap.pyscf_rks_ao import rks_ao
from pyscf import gto, scf, ao2mo
import numpy as np
from pyscf.tools import molden
import time
from pydmfet import dfet_ao
from pydmfet.dfet_ao import dfet

bas ='ccpvdz'
temp = 0.005


mol = gto.Mole()
mol.atom = open('C20.xyz').read()
mol.basis = bas
mol.charge = 0
mol.build(max_memory = 4000, verbose=4)


#mf = scf.RHF(mol)
mf = rks_ao(mol,smear_sigma = temp)
mf.xc = "hf"
mf.max_cycle = 50

DMguess = None
mf.scf(dm0=DMguess)

natoms = mol.natm
impAtom = np.zeros([natoms], dtype=int)
for i in range(10):
    impAtom[i] = 1

ghost_frag = 1-impAtom
ghost_env = 1-ghost_frag

mol_frag = gto.Mole()
mol_frag.atom = tools.add_ghost(mol.atom, ghost_frag)
mol_frag.basis = bas
mol_frag.build(max_memory = 4000,verbose = 4)

mol_env = gto.Mole()
mol_env.atom = tools.add_ghost(mol.atom, ghost_env)
mol_env.basis =  bas
mol_env.build(max_memory = 4000,verbose = 4)

Ne_frag = 20
Ne_env = 20

boundary_atoms = None
boundary_atoms2 = None
boundary_atoms = np.zeros([natoms])
boundary_atoms2 =np.zeros([natoms])

boundary_atoms[10] = 1
boundary_atoms[11] = 1
boundary_atoms2[0] = 1
boundary_atoms2[1] = 1

umat = None
#umat = np.load("umat.npy")

params = oep.OEPparams(algorithm = '2011', opt_method = 'L-BFGS-B', diffP_tol=1e-3, outer_maxit = 10)
params.options['ftol'] = 1e-9
params.options['gtol'] = 1e-3
params.options['maxiter'] = 50
params.options['svd_thresh'] = 1e-5

theDMFET = dfet.DFET(mf, mol_frag, mol_env,Ne_frag,Ne_env,\
                     boundary_atoms=boundary_atoms, boundary_atoms2=boundary_atoms2,umat = umat,\
                     oep_params=params, smear_sigma=temp, ecw_method = 'hf',mf_method = mf.xc, plot_dens=True)

umat = theDMFET.embedding_potential()

#INFO: ******************** input file end ********************


System: uname_result(system='Linux', node='tigercpu.princeton.edu', release='3.10.0-957.27.2.el7.x86_64', version='#1 SMP Tue Jul 30 11:12:20 EDT 2019', machine='x86_64', processor='x86_64')  Threads 40
Python 3.7.0 (default, Jun 28 2018, 13:15:42) 
[GCC 7.2.0]
numpy 1.16.4  scipy 1.4.0.dev0+0f78e0f
Date: Fri Aug 30 20:03:00 2019
PySCF version 1.5
PySCF path  /home/xingz/.local/lib/python3.7/site-packages/pyscf

[CONFIG] conf_file None
[INPUT] verbose = 4
[INPUT] num. atoms = 20
[INPUT] num. electrons = 40
[INPUT] charge = 0
[INPUT] spin (= nelec alpha-beta = 2S) = 0
[INPUT] symmetry False subgroup None
[INPUT] Mole.unit = angstrom
[INPUT]  1 C      0.000000000000   0.685950000000  -0.729760000000 AA    0.000000000000   1.296257635145  -1.379046536663 Bohr
[INPUT]  2 C      0.000000000000  -0.685950000000  -0.729760000000 AA    0.000000000000  -1.296257635145  -1.379046536663 Bohr
[INPUT]  3 C      0.000000000000  -1.440000000000  -1.892560000000 AA    0.000000000000  -2.721205619374  -3.576420074307 Bohr
[INPUT]  4 C      0.000000000000  -0.712450000000  -3.105130000000 AA    0.000000000000  -1.346335377446  -5.867845281171 Bohr
[INPUT]  5 C      0.000000000000   0.712450000000  -3.105130000000 AA    0.000000000000   1.346335377446  -5.867845281171 Bohr
[INPUT]  6 C      0.000000000000   1.440000000000  -1.892560000000 AA    0.000000000000   2.721205619374  -3.576420074307 Bohr
[INPUT]  7 H      0.000000000000  -2.521480000000  -1.870960000000 AA    0.000000000000  -4.764906628568  -3.535601990016 Bohr
[INPUT]  8 H      0.000000000000  -1.246150000000  -4.046500000000 AA    0.000000000000  -2.354882210127  -7.646776763053 Bohr
[INPUT]  9 H      0.000000000000   1.246150000000  -4.046500000000 AA    0.000000000000   2.354882210127  -7.646776763053 Bohr
[INPUT] 10 H      0.000000000000   2.521480000000  -1.870960000000 AA    0.000000000000   4.764906628568  -3.535601990016 Bohr
[INPUT] 11 GHOST-C   0.000000000000   0.685950000000   0.729760000000 AA    0.000000000000   1.296257635145   1.379046536663 Bohr
[INPUT] 12 GHOST-C   0.000000000000  -0.685950000000   0.729760000000 AA    0.000000000000  -1.296257635145   1.379046536663 Bohr
[INPUT] 13 GHOST-C   0.000000000000  -1.440000000000   1.892560000000 AA    0.000000000000  -2.721205619374   3.576420074307 Bohr
[INPUT] 14 GHOST-C   0.000000000000  -0.712450000000   3.105130000000 AA    0.000000000000  -1.346335377446   5.867845281171 Bohr
[INPUT] 15 GHOST-C   0.000000000000   0.712450000000   3.105130000000 AA    0.000000000000   1.346335377446   5.867845281171 Bohr
[INPUT] 16 GHOST-C   0.000000000000   1.440000000000   1.892560000000 AA    0.000000000000   2.721205619374   3.576420074307 Bohr
[INPUT] 17 GHOST-H   0.000000000000  -2.521480000000   1.870960000000 AA    0.000000000000  -4.764906628568   3.535601990016 Bohr
[INPUT] 18 GHOST-H   0.000000000000  -1.246150000000   4.046500000000 AA    0.000000000000  -2.354882210127   7.646776763053 Bohr
[INPUT] 19 GHOST-H   0.000000000000   1.246150000000   4.046500000000 AA    0.000000000000   2.354882210127   7.646776763053 Bohr
[INPUT] 20 GHOST-H   0.000000000000   2.521480000000   1.870960000000 AA    0.000000000000   4.764906628568   3.535601990016 Bohr

nuclear repulsion = 184.417492027056
number of shells = 84
number of NR pGTOs = 368
number of NR cGTOs = 208
basis = ccpvdz
ecp = {}
CPU time:       106.59
#INFO: **** input file is /tigress/xingz/pydmfet/examples/research/C20/dmfet/C20.py ****
from pydmfet import locints, sdmfet,oep,tools,dfet_ao,proj_ao
from pydmfet.qcwrap.pyscf_rks_ao import rks_ao
from pyscf import gto, scf, ao2mo
import numpy as np
from pyscf.tools import molden
import time
from pydmfet import dfet_ao
from pydmfet.dfet_ao import dfet

bas ='ccpvdz'
temp = 0.005


mol = gto.Mole()
mol.atom = open('C20.xyz').read()
mol.basis = bas
mol.charge = 0
mol.build(max_memory = 4000, verbose=4)


#mf = scf.RHF(mol)
mf = rks_ao(mol,smear_sigma = temp)
mf.xc = "hf"
mf.max_cycle = 50

DMguess = None
mf.scf(dm0=DMguess)

natoms = mol.natm
impAtom = np.zeros([natoms], dtype=int)
for i in range(10):
    impAtom[i] = 1

ghost_frag = 1-impAtom
ghost_env = 1-ghost_frag

mol_frag = gto.Mole()
mol_frag.atom = tools.add_ghost(mol.atom, ghost_frag)
mol_frag.basis = bas
mol_frag.build(max_memory = 4000,verbose = 4)

mol_env = gto.Mole()
mol_env.atom = tools.add_ghost(mol.atom, ghost_env)
mol_env.basis =  bas
mol_env.build(max_memory = 4000,verbose = 4)

Ne_frag = 20
Ne_env = 20

boundary_atoms = None
boundary_atoms2 = None
boundary_atoms = np.zeros([natoms])
boundary_atoms2 =np.zeros([natoms])

boundary_atoms[10] = 1
boundary_atoms[11] = 1
boundary_atoms2[0] = 1
boundary_atoms2[1] = 1

umat = None
#umat = np.load("umat.npy")

params = oep.OEPparams(algorithm = '2011', opt_method = 'L-BFGS-B', diffP_tol=1e-3, outer_maxit = 10)
params.options['ftol'] = 1e-9
params.options['gtol'] = 1e-3
params.options['maxiter'] = 50
params.options['svd_thresh'] = 1e-5

theDMFET = dfet.DFET(mf, mol_frag, mol_env,Ne_frag,Ne_env,\
                     boundary_atoms=boundary_atoms, boundary_atoms2=boundary_atoms2,umat = umat,\
                     oep_params=params, smear_sigma=temp, ecw_method = 'hf',mf_method = mf.xc, plot_dens=True)

umat = theDMFET.embedding_potential()

#INFO: ******************** input file end ********************


System: uname_result(system='Linux', node='tigercpu.princeton.edu', release='3.10.0-957.27.2.el7.x86_64', version='#1 SMP Tue Jul 30 11:12:20 EDT 2019', machine='x86_64', processor='x86_64')  Threads 40
Python 3.7.0 (default, Jun 28 2018, 13:15:42) 
[GCC 7.2.0]
numpy 1.16.4  scipy 1.4.0.dev0+0f78e0f
Date: Fri Aug 30 20:03:00 2019
PySCF version 1.5
PySCF path  /home/xingz/.local/lib/python3.7/site-packages/pyscf

[CONFIG] conf_file None
[INPUT] verbose = 4
[INPUT] num. atoms = 20
[INPUT] num. electrons = 40
[INPUT] charge = 0
[INPUT] spin (= nelec alpha-beta = 2S) = 0
[INPUT] symmetry False subgroup None
[INPUT] Mole.unit = angstrom
[INPUT]  1 GHOST-C   0.000000000000   0.685950000000  -0.729760000000 AA    0.000000000000   1.296257635145  -1.379046536663 Bohr
[INPUT]  2 GHOST-C   0.000000000000  -0.685950000000  -0.729760000000 AA    0.000000000000  -1.296257635145  -1.379046536663 Bohr
[INPUT]  3 GHOST-C   0.000000000000  -1.440000000000  -1.892560000000 AA    0.000000000000  -2.721205619374  -3.576420074307 Bohr
[INPUT]  4 GHOST-C   0.000000000000  -0.712450000000  -3.105130000000 AA    0.000000000000  -1.346335377446  -5.867845281171 Bohr
[INPUT]  5 GHOST-C   0.000000000000   0.712450000000  -3.105130000000 AA    0.000000000000   1.346335377446  -5.867845281171 Bohr
[INPUT]  6 GHOST-C   0.000000000000   1.440000000000  -1.892560000000 AA    0.000000000000   2.721205619374  -3.576420074307 Bohr
[INPUT]  7 GHOST-H   0.000000000000  -2.521480000000  -1.870960000000 AA    0.000000000000  -4.764906628568  -3.535601990016 Bohr
[INPUT]  8 GHOST-H   0.000000000000  -1.246150000000  -4.046500000000 AA    0.000000000000  -2.354882210127  -7.646776763053 Bohr
[INPUT]  9 GHOST-H   0.000000000000   1.246150000000  -4.046500000000 AA    0.000000000000   2.354882210127  -7.646776763053 Bohr
[INPUT] 10 GHOST-H   0.000000000000   2.521480000000  -1.870960000000 AA    0.000000000000   4.764906628568  -3.535601990016 Bohr
[INPUT] 11 C      0.000000000000   0.685950000000   0.729760000000 AA    0.000000000000   1.296257635145   1.379046536663 Bohr
[INPUT] 12 C      0.000000000000  -0.685950000000   0.729760000000 AA    0.000000000000  -1.296257635145   1.379046536663 Bohr
[INPUT] 13 C      0.000000000000  -1.440000000000   1.892560000000 AA    0.000000000000  -2.721205619374   3.576420074307 Bohr
[INPUT] 14 C      0.000000000000  -0.712450000000   3.105130000000 AA    0.000000000000  -1.346335377446   5.867845281171 Bohr
[INPUT] 15 C      0.000000000000   0.712450000000   3.105130000000 AA    0.000000000000   1.346335377446   5.867845281171 Bohr
[INPUT] 16 C      0.000000000000   1.440000000000   1.892560000000 AA    0.000000000000   2.721205619374   3.576420074307 Bohr
[INPUT] 17 H      0.000000000000  -2.521480000000   1.870960000000 AA    0.000000000000  -4.764906628568   3.535601990016 Bohr
[INPUT] 18 H      0.000000000000  -1.246150000000   4.046500000000 AA    0.000000000000  -2.354882210127   7.646776763053 Bohr
[INPUT] 19 H      0.000000000000   1.246150000000   4.046500000000 AA    0.000000000000   2.354882210127   7.646776763053 Bohr
[INPUT] 20 H      0.000000000000   2.521480000000   1.870960000000 AA    0.000000000000   4.764906628568   3.535601990016 Bohr

nuclear repulsion = 184.417492027056
number of shells = 84
number of NR pGTOs = 368
number of NR cGTOs = 208
basis = ccpvdz
ecp = {}
CPU time:       107.00


******** <class 'pydmfet.dfet_ao.scf.EmbedSCF'> flags ********
method = EmbedSCF-RKS-RHF
initial guess = minao
damping factor = 0
level shift factor = 0
DIIS = <class 'pyscf.scf.diis.CDIIS'>
DIIS start cycle = 1
DIIS space = 8
SCF tol = 1e-09
SCF gradient tol = None
max. SCF cycles = 50
direct_scf = False
chkfile to save SCF result = /tigress/xingz/pydmfet/examples/research/C20/dmfet/tmpexfxplea
max_memory 4000 MB (current use 2519 MB)
XC functionals = hf
small_rho_cutoff = 1e-07
radial grids: 
    Treutler-Ahlrichs (JCP 102, 346 (M4)) radial grids
    
becke partition: Becke, JCP, 88, 2547 (1988)
pruning grids: <function nwchem_prune at 0x2b72d1f28400>
grids dens level: 3
symmetrized grids: False
atomic radii adjust function: <function treutler_atomic_radii_adjust at 0x2b72d1f28378>
Set gradient conv threshold to 3.16228e-05
tot grids = 256508
init E= -247.289166873763
HOMO: -0.6897012596588501 LUMO: -0.6573583265287124
mo_energy:
[-12.0468 -12.0437 -11.7879 -11.7874 -11.7003 -11.6973  -2.1662  -1.7548
  -1.7296  -1.3706  -1.2702  -1.1345  -0.965   -0.9573  -0.9401  -0.896
  -0.8862  -0.7143  -0.7142  -0.6897  -0.6574  -0.6509  -0.4346  -0.4192
  -0.3937]
e_fermi =  -0.6741334861404883
[2.    2.    2.    2.    2.    2.    2.    2.    2.    2.    2.    2.
 2.    2.    2.    2.    2.    1.999 1.999 1.915 0.067 0.019]
entropy correction =  -0.0038294968325795387
cycle= 1 E= -244.572549234868  delta_E= 2.72  |g|= 1.86  |ddm|= 39.2
HOMO: -0.5685052395560447 LUMO: -0.5602301704687164
mo_energy:
[-12.467 -12.466 -12.008 -12.007 -11.206 -11.205  -2.036  -1.801  -1.666
  -1.549  -1.493  -1.278  -1.249  -1.215  -1.136  -1.029  -0.903  -0.834
  -0.711  -0.569  -0.56   -0.454  -0.419  -0.407  -0.339]
e_fermi =  -0.5643677050154731
[2.    2.    2.    2.    2.    2.    2.    2.    2.    2.    2.    2.
 2.    2.    2.    2.    2.    2.    2.    1.392 0.608]
entropy correction =  -0.01228716584229713
cycle= 2 E= -242.659952790107  delta_E= 1.91  |g|=  3.3  |ddm|= 39.5
HOMO: -0.7389825620579255 LUMO: -0.6067617374781499
mo_energy:
[-11.871 -11.87  -11.707 -11.707 -11.599 -11.598  -1.64   -1.479  -1.456
  -1.295  -1.233  -1.134  -1.052  -1.049  -0.963  -0.955  -0.935  -0.868
  -0.762  -0.739  -0.607  -0.382  -0.333  -0.328  -0.168]
e_fermi =  -0.672845095726278
[2. 2. 2. 2. 2. 2. 2. 2. 2. 2. 2. 2. 2. 2. 2. 2. 2. 2. 2. 2.]
entropy correction =  -5.185697139950249e-07
cycle= 3 E= -245.656347853204  delta_E=   -3  |g|= 0.782  |ddm|= 27.1
HOMO: -0.7395575150758879 LUMO: -0.5744148630043812
mo_energy:
[-11.815 -11.815 -11.698 -11.696 -11.582 -11.582  -1.612  -1.478  -1.439
  -1.281  -1.235  -1.148  -1.068  -1.025  -1.004  -0.991  -0.885  -0.869
  -0.769  -0.74   -0.574  -0.316  -0.305  -0.269  -0.163]
e_fermi =  -0.6569785786495407
[2. 2. 2. 2. 2. 2. 2. 2. 2. 2. 2. 2. 2. 2. 2. 2. 2. 2. 2. 2.]
entropy correction =  -2.3570461319119997e-08
cycle= 4 E= -245.875146060133  delta_E= -0.219  |g|= 0.207  |ddm|=  1.8
HOMO: -0.782967296273462 LUMO: -0.5484899067780067
mo_energy:
[-11.794 -11.794 -11.757 -11.756 -11.695 -11.695  -1.641  -1.499  -1.482
  -1.306  -1.268  -1.162  -1.107  -1.051  -1.031  -1.026  -0.919  -0.905
  -0.809  -0.783  -0.548  -0.303  -0.301  -0.287  -0.168]
e_fermi =  -0.665718761117212
[2. 2. 2. 2. 2. 2. 2. 2. 2. 2. 2. 2. 2. 2. 2. 2. 2. 2. 2. 2.]
entropy correction =  0.0
cycle= 5 E= -245.902131352908  delta_E= -0.027  |g|= 0.0509  |ddm|=  2.9
HOMO: -0.7706282651021754 LUMO: -0.5233256929563591
mo_energy:
[-11.785 -11.784 -11.735 -11.733 -11.664 -11.664  -1.626  -1.487  -1.466
  -1.295  -1.256  -1.153  -1.092  -1.043  -1.022  -1.019  -0.905  -0.903
  -0.821  -0.771  -0.523  -0.309  -0.284  -0.274  -0.164]
e_fermi =  -0.6470931088521754
[2. 2. 2. 2. 2. 2. 2. 2. 2. 2. 2. 2. 2. 2. 2. 2. 2. 2. 2. 2.]
entropy correction =  0.0
cycle= 6 E= -245.908497763001  delta_E= -0.00637  |g|= 0.0668  |ddm|= 1.04
HOMO: -0.7723935507618984 LUMO: -0.5291320809009228
mo_energy:
[-11.779 -11.778 -11.752 -11.751 -11.669 -11.669  -1.629  -1.492  -1.467
  -1.299  -1.256  -1.149  -1.094  -1.04   -1.025  -1.016  -0.911  -0.906
  -0.833  -0.772  -0.529  -0.322  -0.286  -0.277  -0.157]
e_fermi =  -0.6508115195118984
[2. 2. 2. 2. 2. 2. 2. 2. 2. 2. 2. 2. 2. 2. 2. 2. 2. 2. 2. 2.]
entropy correction =  0.0
cycle= 7 E= -245.910002385389  delta_E= -0.0015  |g|= 0.0294  |ddm|= 0.304
HOMO: -0.7723457845763745 LUMO: -0.5266052079423706
mo_energy:
[-11.767 -11.766 -11.757 -11.756 -11.67  -11.67   -1.627  -1.49   -1.465
  -1.298  -1.254  -1.145  -1.091  -1.038  -1.023  -1.013  -0.913  -0.906
  -0.837  -0.772  -0.527  -0.326  -0.284  -0.277  -0.153]
e_fermi =  -0.6495430502013745
[2. 2. 2. 2. 2. 2. 2. 2. 2. 2. 2. 2. 2. 2. 2. 2. 2. 2. 2. 2.]
entropy correction =  0.0
cycle= 8 E= -245.910442167193  delta_E= -0.00044  |g|= 0.005  |ddm|= 0.165
HOMO: -0.7727439842280073 LUMO: -0.526992674158762
mo_energy:
[-11.767 -11.766 -11.76  -11.759 -11.669 -11.669  -1.628  -1.491  -1.465
  -1.299  -1.254  -1.145  -1.092  -1.038  -1.024  -1.013  -0.913  -0.907
  -0.837  -0.773  -0.527  -0.327  -0.284  -0.277  -0.153]
e_fermi =  -0.6499412498530073
[2. 2. 2. 2. 2. 2. 2. 2. 2. 2. 2. 2. 2. 2. 2. 2. 2. 2. 2. 2.]
entropy correction =  0.0
cycle= 9 E= -245.910463944705  delta_E= -2.18e-05  |g|= 0.00141  |ddm|= 0.0377
HOMO: -0.7727188425169093 LUMO: -0.5271648718342358
mo_energy:
[-11.767 -11.766 -11.76  -11.758 -11.669 -11.669  -1.628  -1.491  -1.465
  -1.299  -1.254  -1.145  -1.092  -1.038  -1.024  -1.013  -0.913  -0.907
  -0.837  -0.773  -0.527  -0.326  -0.284  -0.277  -0.153]
e_fermi =  -0.6499161081419093
[2. 2. 2. 2. 2. 2. 2. 2. 2. 2. 2. 2. 2. 2. 2. 2. 2. 2. 2. 2.]
entropy correction =  0.0
cycle= 10 E= -245.910465161513  delta_E= -1.22e-06  |g|= 0.000367  |ddm|= 0.0244
HOMO: -0.7727382560494845 LUMO: -0.5272002434922699
mo_energy:
[-11.767 -11.766 -11.76  -11.759 -11.669 -11.669  -1.628  -1.491  -1.465
  -1.299  -1.254  -1.145  -1.092  -1.038  -1.024  -1.013  -0.913  -0.907
  -0.837  -0.773  -0.527  -0.326  -0.284  -0.277  -0.153]
e_fermi =  -0.6499355216744845
[2. 2. 2. 2. 2. 2. 2. 2. 2. 2. 2. 2. 2. 2. 2. 2. 2. 2. 2. 2.]
entropy correction =  0.0
cycle= 11 E= -245.910465338401  delta_E= -1.77e-07  |g|= 9.64e-05  |ddm|= 0.00197
HOMO: -0.7727444197815406 LUMO: -0.5271863754537964
mo_energy:
[-11.767 -11.766 -11.76  -11.759 -11.669 -11.669  -1.628  -1.491  -1.465
  -1.299  -1.254  -1.145  -1.092  -1.038  -1.024  -1.013  -0.913  -0.907
  -0.837  -0.773  -0.527  -0.326  -0.284  -0.277  -0.153]
e_fermi =  -0.6499416854065406
[2. 2. 2. 2. 2. 2. 2. 2. 2. 2. 2. 2. 2. 2. 2. 2. 2. 2. 2. 2.]
entropy correction =  0.0
cycle= 12 E= -245.910465354102  delta_E= -1.57e-08  |g|= 2.9e-05  |ddm|= 0.000881
HOMO: -0.7727429640905655 LUMO: -0.5271867245971205
mo_energy:
[-11.767 -11.766 -11.76  -11.759 -11.669 -11.669  -1.628  -1.491  -1.465
  -1.299  -1.254  -1.145  -1.092  -1.038  -1.024  -1.013  -0.913  -0.907
  -0.837  -0.773  -0.527  -0.326  -0.284  -0.277  -0.153]
e_fermi =  -0.6499402297155655
[2. 2. 2. 2. 2. 2. 2. 2. 2. 2. 2. 2. 2. 2. 2. 2. 2. 2. 2. 2.]
entropy correction =  0.0
cycle= 13 E= -245.910465355151  delta_E= -1.05e-09  |g|= 4.59e-06  |ddm|= 0.000273
HOMO: -0.7727423219613966 LUMO: -0.5271863745101877
mo_energy:
[-11.767 -11.766 -11.76  -11.759 -11.669 -11.669  -1.628  -1.491  -1.465
  -1.299  -1.254  -1.145  -1.092  -1.038  -1.024  -1.013  -0.913  -0.907
  -0.837  -0.773  -0.527  -0.326  -0.284  -0.277  -0.153]
e_fermi =  -0.6499395875863966
[2. 2. 2. 2. 2. 2. 2. 2. 2. 2. 2. 2. 2. 2. 2. 2. 2. 2. 2. 2.]
entropy correction =  0.0
cycle= 14 E= -245.910465355166  delta_E= -1.54e-11  |g|= 8.48e-07  |ddm|= 2.22e-05
HOMO: -0.7727424981557783 LUMO: -0.5271864628482859
mo_energy:
[-11.767 -11.766 -11.76  -11.759 -11.669 -11.669  -1.628  -1.491  -1.465
  -1.299  -1.254  -1.145  -1.092  -1.038  -1.024  -1.013  -0.913  -0.907
  -0.837  -0.773  -0.527  -0.326  -0.284  -0.277  -0.153]
e_fermi =  -0.6499397637807783
[2. 2. 2. 2. 2. 2. 2. 2. 2. 2. 2. 2. 2. 2. 2. 2. 2. 2. 2. 2.]
entropy correction =  0.0
Extra cycle  E= -245.910465355166  delta_E= 6.82e-13  |g|= 4.29e-07  |ddm|= 1.24e-05
converged SCF energy = -245.910465355166


******** <class 'pydmfet.dfet_ao.scf.EmbedSCF'> flags ********
method = EmbedSCF-RKS-RHF
initial guess = minao
damping factor = 0
level shift factor = 0
DIIS = <class 'pyscf.scf.diis.CDIIS'>
DIIS start cycle = 1
DIIS space = 8
SCF tol = 1e-09
SCF gradient tol = None
max. SCF cycles = 50
direct_scf = False
chkfile to save SCF result = /tigress/xingz/pydmfet/examples/research/C20/dmfet/tmpxpfhzwuc
max_memory 4000 MB (current use 2532 MB)
XC functionals = hf
small_rho_cutoff = 1e-07
radial grids: 
    Treutler-Ahlrichs (JCP 102, 346 (M4)) radial grids
    
becke partition: Becke, JCP, 88, 2547 (1988)
pruning grids: <function nwchem_prune at 0x2b72d1f28400>
grids dens level: 3
symmetrized grids: False
atomic radii adjust function: <function treutler_atomic_radii_adjust at 0x2b72d1f28378>
Set gradient conv threshold to 3.16228e-05
tot grids = 256508
init E= -247.289166873764
HOMO: -0.6897012596588523 LUMO: -0.6573583265287135
mo_energy:
[-12.047 -12.044 -11.788 -11.787 -11.7   -11.697  -2.166  -1.755  -1.73
  -1.371  -1.27   -1.135  -0.965  -0.957  -0.94   -0.896  -0.886  -0.714
  -0.714  -0.69   -0.657  -0.651  -0.435  -0.419  -0.394]
e_fermi =  -0.6741334861404895
[2.    2.    2.    2.    2.    2.    2.    2.    2.    2.    2.    2.
 2.    2.    2.    2.    2.    1.999 1.999 1.915 0.067 0.019]
entropy correction =  -0.003829496832579023
cycle= 1 E= -244.572549234868  delta_E= 2.72  |g|= 1.86  |ddm|= 39.2
HOMO: -0.5685052395560724 LUMO: -0.5602301704686605
mo_energy:
[-12.467 -12.466 -12.008 -12.007 -11.206 -11.205  -2.036  -1.801  -1.666
  -1.549  -1.493  -1.278  -1.249  -1.215  -1.136  -1.029  -0.903  -0.834
  -0.711  -0.569  -0.56   -0.454  -0.419  -0.407  -0.339]
e_fermi =  -0.5643677050154591
[2.    2.    2.    2.    2.    2.    2.    2.    2.    2.    2.    2.
 2.    2.    2.    2.    2.    2.    2.    1.392 0.608]
entropy correction =  -0.012287165842267883
cycle= 2 E= -242.659952790112  delta_E= 1.91  |g|=  3.3  |ddm|= 39.5
HOMO: -0.7389825620579131 LUMO: -0.6067617374782363
mo_energy:
[-11.871 -11.87  -11.707 -11.707 -11.599 -11.598  -1.64   -1.479  -1.456
  -1.295  -1.233  -1.134  -1.052  -1.049  -0.963  -0.955  -0.935  -0.868
  -0.762  -0.739  -0.607  -0.382  -0.333  -0.328  -0.168]
e_fermi =  -0.6728450957262657
[2. 2. 2. 2. 2. 2. 2. 2. 2. 2. 2. 2. 2. 2. 2. 2. 2. 2. 2. 2.]
entropy correction =  -5.185697140399334e-07
cycle= 3 E= -245.656347853206  delta_E=   -3  |g|= 0.782  |ddm|= 27.1
HOMO: -0.7395575150760065 LUMO: -0.5744148630044414
mo_energy:
[-11.815 -11.815 -11.698 -11.696 -11.582 -11.582  -1.612  -1.478  -1.439
  -1.281  -1.235  -1.148  -1.068  -1.025  -1.004  -0.991  -0.885  -0.869
  -0.769  -0.74   -0.574  -0.316  -0.305  -0.269  -0.163]
e_fermi =  -0.6569785786496594
[2. 2. 2. 2. 2. 2. 2. 2. 2. 2. 2. 2. 2. 2. 2. 2. 2. 2. 2. 2.]
entropy correction =  -2.3570461318997915e-08
cycle= 4 E= -245.875146060134  delta_E= -0.219  |g|= 0.207  |ddm|=  1.8
HOMO: -0.7829672962734142 LUMO: -0.5484899067778626
mo_energy:
[-11.794 -11.794 -11.757 -11.756 -11.695 -11.695  -1.641  -1.499  -1.482
  -1.306  -1.268  -1.162  -1.107  -1.051  -1.031  -1.026  -0.919  -0.905
  -0.809  -0.783  -0.548  -0.303  -0.301  -0.287  -0.168]
e_fermi =  -0.6657187611171642
[2. 2. 2. 2. 2. 2. 2. 2. 2. 2. 2. 2. 2. 2. 2. 2. 2. 2. 2. 2.]
entropy correction =  0.0
cycle= 5 E= -245.902131352908  delta_E= -0.027  |g|= 0.0509  |ddm|=  2.9
HOMO: -0.7706282651021684 LUMO: -0.5233256929563764
mo_energy:
[-11.785 -11.784 -11.735 -11.733 -11.664 -11.664  -1.626  -1.487  -1.466
  -1.295  -1.256  -1.153  -1.092  -1.043  -1.022  -1.019  -0.905  -0.903
  -0.821  -0.771  -0.523  -0.309  -0.284  -0.274  -0.164]
e_fermi =  -0.6470931088521684
[2. 2. 2. 2. 2. 2. 2. 2. 2. 2. 2. 2. 2. 2. 2. 2. 2. 2. 2. 2.]
entropy correction =  0.0
cycle= 6 E= -245.908497763001  delta_E= -0.00637  |g|= 0.0668  |ddm|= 1.04
HOMO: -0.7723935507619748 LUMO: -0.5291320809010207
mo_energy:
[-11.779 -11.778 -11.752 -11.751 -11.669 -11.669  -1.629  -1.492  -1.467
  -1.299  -1.256  -1.149  -1.094  -1.04   -1.025  -1.016  -0.911  -0.906
  -0.833  -0.772  -0.529  -0.322  -0.286  -0.277  -0.157]
e_fermi =  -0.6508115195119748
[2. 2. 2. 2. 2. 2. 2. 2. 2. 2. 2. 2. 2. 2. 2. 2. 2. 2. 2. 2.]
entropy correction =  0.0
cycle= 7 E= -245.91000238539  delta_E= -0.0015  |g|= 0.0294  |ddm|= 0.304
HOMO: -0.7723457845764068 LUMO: -0.5266052079423874
mo_energy:
[-11.767 -11.766 -11.757 -11.756 -11.67  -11.67   -1.627  -1.49   -1.465
  -1.298  -1.254  -1.145  -1.091  -1.038  -1.023  -1.013  -0.913  -0.906
  -0.837  -0.772  -0.527  -0.326  -0.284  -0.277  -0.153]
e_fermi =  -0.6495430502014068
[2. 2. 2. 2. 2. 2. 2. 2. 2. 2. 2. 2. 2. 2. 2. 2. 2. 2. 2. 2.]
entropy correction =  0.0
cycle= 8 E= -245.910442167193  delta_E= -0.00044  |g|= 0.005  |ddm|= 0.165
HOMO: -0.7727439842279417 LUMO: -0.5269926741586682
mo_energy:
[-11.767 -11.766 -11.76  -11.759 -11.669 -11.669  -1.628  -1.491  -1.465
  -1.299  -1.254  -1.145  -1.092  -1.038  -1.024  -1.013  -0.913  -0.907
  -0.837  -0.773  -0.527  -0.327  -0.284  -0.277  -0.153]
e_fermi =  -0.6499412498529417
[2. 2. 2. 2. 2. 2. 2. 2. 2. 2. 2. 2. 2. 2. 2. 2. 2. 2. 2. 2.]
entropy correction =  0.0
cycle= 9 E= -245.910463944705  delta_E= -2.18e-05  |g|= 0.00141  |ddm|= 0.0377
HOMO: -0.7727188425169231 LUMO: -0.5271648718342824
mo_energy:
[-11.767 -11.766 -11.76  -11.758 -11.669 -11.669  -1.628  -1.491  -1.465
  -1.299  -1.254  -1.145  -1.092  -1.038  -1.024  -1.013  -0.913  -0.907
  -0.837  -0.773  -0.527  -0.326  -0.284  -0.277  -0.153]
e_fermi =  -0.6499161081419231
[2. 2. 2. 2. 2. 2. 2. 2. 2. 2. 2. 2. 2. 2. 2. 2. 2. 2. 2. 2.]
entropy correction =  0.0
cycle= 10 E= -245.910465161512  delta_E= -1.22e-06  |g|= 0.000367  |ddm|= 0.0244
HOMO: -0.7727382560495 LUMO: -0.5272002434922775
mo_energy:
[-11.767 -11.766 -11.76  -11.759 -11.669 -11.669  -1.628  -1.491  -1.465
  -1.299  -1.254  -1.145  -1.092  -1.038  -1.024  -1.013  -0.913  -0.907
  -0.837  -0.773  -0.527  -0.326  -0.284  -0.277  -0.153]
e_fermi =  -0.6499355216745
[2. 2. 2. 2. 2. 2. 2. 2. 2. 2. 2. 2. 2. 2. 2. 2. 2. 2. 2. 2.]
entropy correction =  0.0
cycle= 11 E= -245.910465338403  delta_E= -1.77e-07  |g|= 9.64e-05  |ddm|= 0.00197
HOMO: -0.772744419781527 LUMO: -0.5271863754537854
mo_energy:
[-11.767 -11.766 -11.76  -11.759 -11.669 -11.669  -1.628  -1.491  -1.465
  -1.299  -1.254  -1.145  -1.092  -1.038  -1.024  -1.013  -0.913  -0.907
  -0.837  -0.773  -0.527  -0.326  -0.284  -0.277  -0.153]
e_fermi =  -0.649941685406527
[2. 2. 2. 2. 2. 2. 2. 2. 2. 2. 2. 2. 2. 2. 2. 2. 2. 2. 2. 2.]
entropy correction =  0.0
cycle= 12 E= -245.9104653541  delta_E= -1.57e-08  |g|= 2.9e-05  |ddm|= 0.000881
HOMO: -0.7727429640906172 LUMO: -0.5271867245971671
mo_energy:
[-11.767 -11.766 -11.76  -11.759 -11.669 -11.669  -1.628  -1.491  -1.465
  -1.299  -1.254  -1.145  -1.092  -1.038  -1.024  -1.013  -0.913  -0.907
  -0.837  -0.773  -0.527  -0.326  -0.284  -0.277  -0.153]
e_fermi =  -0.6499402297156172
[2. 2. 2. 2. 2. 2. 2. 2. 2. 2. 2. 2. 2. 2. 2. 2. 2. 2. 2. 2.]
entropy correction =  0.0
cycle= 13 E= -245.910465355151  delta_E= -1.05e-09  |g|= 4.59e-06  |ddm|= 0.000273
HOMO: -0.7727423219613598 LUMO: -0.5271863745101506
mo_energy:
[-11.767 -11.766 -11.76  -11.759 -11.669 -11.669  -1.628  -1.491  -1.465
  -1.299  -1.254  -1.145  -1.092  -1.038  -1.024  -1.013  -0.913  -0.907
  -0.837  -0.773  -0.527  -0.326  -0.284  -0.277  -0.153]
e_fermi =  -0.6499395875863598
[2. 2. 2. 2. 2. 2. 2. 2. 2. 2. 2. 2. 2. 2. 2. 2. 2. 2. 2. 2.]
entropy correction =  0.0
cycle= 14 E= -245.910465355166  delta_E= -1.52e-11  |g|= 8.48e-07  |ddm|= 2.22e-05
HOMO: -0.772742498155754 LUMO: -0.5271864628482672
mo_energy:
[-11.767 -11.766 -11.76  -11.759 -11.669 -11.669  -1.628  -1.491  -1.465
  -1.299  -1.254  -1.145  -1.092  -1.038  -1.024  -1.013  -0.913  -0.907
  -0.837  -0.773  -0.527  -0.326  -0.284  -0.277  -0.153]
e_fermi =  -0.649939763780754
[2. 2. 2. 2. 2. 2. 2. 2. 2. 2. 2. 2. 2. 2. 2. 2. 2. 2. 2. 2.]
entropy correction =  0.0
Extra cycle  E= -245.910465355166  delta_E= 2.27e-13  |g|= 4.29e-07  |ddm|= 1.24e-05
converged SCF energy = -245.910465355166
gtol =  0.001
|umat| =  0.0
rks_ao.ne_frozen =  0
Set gradient conv threshold to 3.16228e-05
tot grids = 256508
init E= -247.289166873764
HOMO:  -0.6897012596588507 LUMO:  -0.6573583265287138
Fermi energy:      -0.6741334861
[2.     2.     2.     2.     2.     2.     2.     2.     2.     2.
 2.     2.     2.     2.     2.     2.     2.     1.9993 1.9993 1.9149
 0.0675 0.019 ]
entropy correction =  -0.0038294968325792945
cycle= 1 E= -244.572549234868  delta_E= 2.72  |g|= 1.86  |ddm|= 39.2
HOMO:  -0.5685052395560597 LUMO:  -0.5602301704687223
Fermi energy:      -0.5643677050
[2.     2.     2.     2.     2.     2.     2.     2.     2.     2.
 2.     2.     2.     2.     2.     2.     2.     2.     2.     1.3917
 0.6083]
entropy correction =  -0.012287165842293937
cycle= 2 E= -242.659952790106  delta_E= 1.91  |g|=  3.3  |ddm|= 39.5
HOMO:  -0.7389825620579462 LUMO:  -0.6067617374781681
Fermi energy:      -0.6728450957
[2. 2. 2. 2. 2. 2. 2. 2. 2. 2. 2. 2. 2. 2. 2. 2. 2. 2. 2. 2.]
entropy correction =  -5.185697140343205e-07
cycle= 3 E= -245.656347853205  delta_E=   -3  |g|= 0.782  |ddm|= 27.1
HOMO:  -0.7395575150759126 LUMO:  -0.5744148630043986
Fermi energy:      -0.6569785786
[2. 2. 2. 2. 2. 2. 2. 2. 2. 2. 2. 2. 2. 2. 2. 2. 2. 2. 2. 2.]
entropy correction =  -2.35704613191047e-08
cycle= 4 E= -245.875146060133  delta_E= -0.219  |g|= 0.207  |ddm|=  1.8
HOMO:  -0.7829672962734141 LUMO:  -0.5484899067779142
Fermi energy:      -0.6657187611
[2. 2. 2. 2. 2. 2. 2. 2. 2. 2. 2. 2. 2. 2. 2. 2. 2. 2. 2. 2.]
entropy correction =  0.0
cycle= 5 E= -245.902131352908  delta_E= -0.027  |g|= 0.0509  |ddm|=  2.9
HOMO:  -0.7706282651022238 LUMO:  -0.5233256929564418
Fermi energy:      -0.6470931089
[2. 2. 2. 2. 2. 2. 2. 2. 2. 2. 2. 2. 2. 2. 2. 2. 2. 2. 2. 2.]
entropy correction =  0.0
cycle= 6 E= -245.908497763001  delta_E= -0.00637  |g|= 0.0668  |ddm|= 1.04
HOMO:  -0.7723935507619145 LUMO:  -0.5291320809009397
Fermi energy:      -0.6508115195
[2. 2. 2. 2. 2. 2. 2. 2. 2. 2. 2. 2. 2. 2. 2. 2. 2. 2. 2. 2.]
entropy correction =  0.0
cycle= 7 E= -245.910002385389  delta_E= -0.0015  |g|= 0.0294  |ddm|= 0.304
HOMO:  -0.7723457845765038 LUMO:  -0.5266052079424779
Fermi energy:      -0.6495430502
[2. 2. 2. 2. 2. 2. 2. 2. 2. 2. 2. 2. 2. 2. 2. 2. 2. 2. 2. 2.]
entropy correction =  0.0
cycle= 8 E= -245.910442167193  delta_E= -0.00044  |g|= 0.005  |ddm|= 0.165
HOMO:  -0.7727439842279806 LUMO:  -0.5269926741587064
Fermi energy:      -0.6499412499
[2. 2. 2. 2. 2. 2. 2. 2. 2. 2. 2. 2. 2. 2. 2. 2. 2. 2. 2. 2.]
entropy correction =  0.0
cycle= 9 E= -245.910463944705  delta_E= -2.18e-05  |g|= 0.00141  |ddm|= 0.0377
HOMO:  -0.7727188425169045 LUMO:  -0.5271648718342421
Fermi energy:      -0.6499161081
[2. 2. 2. 2. 2. 2. 2. 2. 2. 2. 2. 2. 2. 2. 2. 2. 2. 2. 2. 2.]
entropy correction =  0.0
cycle= 10 E= -245.910465161512  delta_E= -1.22e-06  |g|= 0.000367  |ddm|= 0.0244
HOMO:  -0.7727382560494575 LUMO:  -0.5272002434922447
Fermi energy:      -0.6499355217
[2. 2. 2. 2. 2. 2. 2. 2. 2. 2. 2. 2. 2. 2. 2. 2. 2. 2. 2. 2.]
entropy correction =  0.0
cycle= 11 E= -245.910465338402  delta_E= -1.77e-07  |g|= 9.64e-05  |ddm|= 0.00197
HOMO:  -0.7727444197815465 LUMO:  -0.5271863754537994
Fermi energy:      -0.6499416854
[2. 2. 2. 2. 2. 2. 2. 2. 2. 2. 2. 2. 2. 2. 2. 2. 2. 2. 2. 2.]
entropy correction =  0.0
cycle= 12 E= -245.910465354101  delta_E= -1.57e-08  |g|= 2.9e-05  |ddm|= 0.000881
HOMO:  -0.7727429640906975 LUMO:  -0.5271867245972287
Fermi energy:      -0.6499402297
[2. 2. 2. 2. 2. 2. 2. 2. 2. 2. 2. 2. 2. 2. 2. 2. 2. 2. 2. 2.]
entropy correction =  0.0
cycle= 13 E= -245.910465355151  delta_E= -1.05e-09  |g|= 4.59e-06  |ddm|= 0.000273
HOMO:  -0.7727423219612525 LUMO:  -0.5271863745100673
Fermi energy:      -0.6499395876
[2. 2. 2. 2. 2. 2. 2. 2. 2. 2. 2. 2. 2. 2. 2. 2. 2. 2. 2. 2.]
entropy correction =  0.0
cycle= 14 E= -245.910465355166  delta_E= -1.56e-11  |g|= 8.48e-07  |ddm|= 2.22e-05
HOMO:  -0.772742498155741 LUMO:  -0.5271864628482584
Fermi energy:      -0.6499397638
[2. 2. 2. 2. 2. 2. 2. 2. 2. 2. 2. 2. 2. 2. 2. 2. 2. 2. 2. 2.]
entropy correction =  0.0
Extra cycle  E= -245.910465355166  delta_E= 5.12e-13  |g|= 4.29e-07  |ddm|= 1.24e-05
entropy correction =  0.0
rks_ao.ne_frozen =  0
Set gradient conv threshold to 3.16228e-05
tot grids = 256508
init E= -294.649672187066
HOMO:  -1.3503859719563782 LUMO:  -1.1933037371689394
Fermi energy:      -1.2718649109
[2. 2. 2. 2. 2. 2. 2. 2. 2. 2. 2. 2. 2. 2. 2. 2. 2. 2. 2. 2.]
entropy correction =  -5.034640975188103e-08
cycle= 1 E= -283.269492508655  delta_E= 11.4  |g|= 5.63  |ddm|= 60.3
HOMO:  -1.223197384040634 LUMO:  -1.184825911109659
Fermi energy:      -1.2044233269
[2.     2.     2.     2.     2.     2.     2.     2.     2.     2.
 2.     2.     2.     2.     2.     2.     2.     2.     2.     1.9543
 0.0389 0.0068]
entropy correction =  -0.0022770315735081608
cycle= 2 E= -248.960305950763  delta_E= 34.3  |g|= 10.5  |ddm|= 49.7
HOMO:  -1.0737923921647885 LUMO:  -0.9834721995605338
Fermi energy:      -1.0285316180
[2.0000e+00 2.0000e+00 2.0000e+00 2.0000e+00 2.0000e+00 2.0000e+00
 2.0000e+00 2.0000e+00 2.0000e+00 2.0000e+00 2.0000e+00 2.0000e+00
 2.0000e+00 2.0000e+00 2.0000e+00 2.0000e+00 2.0000e+00 2.0000e+00
 2.0000e+00 1.9998e+00 2.4387e-04]
entropy correction =  -2.461925943177088e-05
cycle= 3 E= -292.150633763611  delta_E= -43.2  |g|= 3.28  |ddm|= 20.2
HOMO:  -1.1751636092559967 LUMO:  -1.1694153628282613
Fermi energy:      -1.1721973463
[2.     2.     2.     2.     2.     2.     2.     2.     2.     2.
 2.     2.     2.     2.     2.     2.     2.     2.     1.983  1.2882
 0.7288]
entropy correction =  -0.013558680858646309
cycle= 4 E= -294.860268205998  delta_E= -2.71  |g|= 0.766  |ddm|= 5.95
HOMO:  -1.235556692230912 LUMO:  -1.1555133129597583
Fermi energy:      -1.1955349997
[2.0000e+00 2.0000e+00 2.0000e+00 2.0000e+00 2.0000e+00 2.0000e+00
 2.0000e+00 2.0000e+00 2.0000e+00 2.0000e+00 2.0000e+00 2.0000e+00
 2.0000e+00 2.0000e+00 2.0000e+00 2.0000e+00 2.0000e+00 2.0000e+00
 2.0000e+00 1.9993e+00 6.6780e-04]
entropy correction =  -6.0131911181540746e-05
cycle= 5 E= -295.221102376606  delta_E= -0.361  |g|= 0.318  |ddm|= 2.44
HOMO:  -1.2401286837555276 LUMO:  -1.0177543619748366
Fermi energy:      -1.1289415209
[2. 2. 2. 2. 2. 2. 2. 2. 2. 2. 2. 2. 2. 2. 2. 2. 2. 2. 2. 2.]
entropy correction =  0.0
cycle= 6 E= -295.248894546967  delta_E= -0.0278  |g|= 0.114  |ddm|= 0.696
HOMO:  -1.225056261105306 LUMO:  -1.0157135229491978
Fermi energy:      -1.1203848939
[2. 2. 2. 2. 2. 2. 2. 2. 2. 2. 2. 2. 2. 2. 2. 2. 2. 2. 2. 2.]
entropy correction =  0.0
cycle= 7 E= -295.253262799502  delta_E= -0.00437  |g|= 0.045  |ddm|= 0.445
HOMO:  -1.2309646049615792 LUMO:  -1.028519817472437
Fermi energy:      -1.1297422114
[2. 2. 2. 2. 2. 2. 2. 2. 2. 2. 2. 2. 2. 2. 2. 2. 2. 2. 2. 2.]
entropy correction =  0.0
cycle= 8 E= -295.253963762958  delta_E= -0.000701  |g|= 0.0116  |ddm|= 0.23
HOMO:  -1.2296909761315198 LUMO:  -1.0272484990581352
Fermi energy:      -1.1284697361
[2. 2. 2. 2. 2. 2. 2. 2. 2. 2. 2. 2. 2. 2. 2. 2. 2. 2. 2. 2.]
entropy correction =  0.0
cycle= 9 E= -295.254055213345  delta_E= -9.15e-05  |g|= 0.00297  |ddm|= 0.114
HOMO:  -1.2299535209791765 LUMO:  -1.027863485882212
Fermi energy:      -1.1289085027
[2. 2. 2. 2. 2. 2. 2. 2. 2. 2. 2. 2. 2. 2. 2. 2. 2. 2. 2. 2.]
entropy correction =  0.0
cycle= 10 E= -295.254062699482  delta_E= -7.49e-06  |g|= 0.00106  |ddm|= 0.0191
HOMO:  -1.2299349025433128 LUMO:  -1.0277796776890167
Fermi energy:      -1.1288572897
[2. 2. 2. 2. 2. 2. 2. 2. 2. 2. 2. 2. 2. 2. 2. 2. 2. 2. 2. 2.]
entropy correction =  0.0
cycle= 11 E= -295.25406369695  delta_E= -9.97e-07  |g|= 0.000218  |ddm|= 0.00372
HOMO:  -1.2299224140930163 LUMO:  -1.0276932829340253
Fermi energy:      -1.1288078499
[2. 2. 2. 2. 2. 2. 2. 2. 2. 2. 2. 2. 2. 2. 2. 2. 2. 2. 2. 2.]
entropy correction =  0.0
cycle= 12 E= -295.254063740228  delta_E= -4.33e-08  |g|= 4.53e-05  |ddm|= 0.00111
HOMO:  -1.2299203252143958 LUMO:  -1.0277028189220259
Fermi energy:      -1.1288115735
[2. 2. 2. 2. 2. 2. 2. 2. 2. 2. 2. 2. 2. 2. 2. 2. 2. 2. 2. 2.]
entropy correction =  0.0
cycle= 13 E= -295.25406374136  delta_E= -1.13e-09  |g|= 9.58e-06  |ddm|= 0.000206
HOMO:  -1.2299208341843013 LUMO:  -1.0277041970906773
Fermi energy:      -1.1288125158
[2. 2. 2. 2. 2. 2. 2. 2. 2. 2. 2. 2. 2. 2. 2. 2. 2. 2. 2. 2.]
entropy correction =  0.0
cycle= 14 E= -295.254063741406  delta_E= -4.59e-11  |g|= 2.43e-06  |ddm|= 5.49e-05
HOMO:  -1.229920760381217 LUMO:  -1.027703837283306
Fermi energy:      -1.1288122998
[2. 2. 2. 2. 2. 2. 2. 2. 2. 2. 2. 2. 2. 2. 2. 2. 2. 2. 2. 2.]
entropy correction =  0.0
Extra cycle  E= -295.254063741408  delta_E= -2.22e-12  |g|= 9.64e-07  |ddm|= 8.93e-06
entropy correction =  0.0
-W =  782.7704026497859
2-norm (grad),       max(grad):
39.41707661275925 ,  11.204165563859872
|umat| =  1.3307877113152544
rks_ao.ne_frozen =  0
Set gradient conv threshold to 3.16228e-05
tot grids = 256508
init E= -246.367551516659
HOMO:  -0.6898748321552828 LUMO:  -0.6649281226220161
Fermi energy:      -0.6776610183
[2.     2.     2.     2.     2.     2.     2.     2.     2.     2.
 2.     2.     2.     2.     2.     2.     2.     1.9991 1.9987 1.8401
 0.1453 0.0169]
entropy correction =  -0.005972733776698808
cycle= 1 E= -244.606649217127  delta_E= 1.76  |g|= 1.83  |ddm|= 8.52
HOMO:  -0.5800642662421875 LUMO:  -0.5554276389958825
Fermi energy:      -0.5677459526
[2.     2.     2.     2.     2.     2.     2.     2.     2.     2.
 2.     2.     2.     2.     2.     2.     2.     2.     2.     1.8431
 0.1569]
entropy correction =  -0.005499107045419496
cycle= 2 E= -243.392820101085  delta_E= 1.21  |g|= 3.04  |ddm|= 6.81
HOMO:  -0.7263153387722088 LUMO:  -0.6428553535442667
Fermi energy:      -0.6845729663
[2.0000e+00 2.0000e+00 2.0000e+00 2.0000e+00 2.0000e+00 2.0000e+00
 2.0000e+00 2.0000e+00 2.0000e+00 2.0000e+00 2.0000e+00 2.0000e+00
 2.0000e+00 2.0000e+00 2.0000e+00 2.0000e+00 2.0000e+00 2.0000e+00
 2.0000e+00 1.9995e+00 4.7575e-04]
entropy correction =  -4.452669541942782e-05
cycle= 3 E= -245.726895970212  delta_E= -2.33  |g|= 0.637  |ddm|= 5.71
HOMO:  -0.7472837053535338 LUMO:  -0.5928061253156715
Fermi energy:      -0.6700352385
[2. 2. 2. 2. 2. 2. 2. 2. 2. 2. 2. 2. 2. 2. 2. 2. 2. 2. 2. 2.]
entropy correction =  -6.430744820490719e-08
cycle= 4 E= -245.883401039225  delta_E= -0.157  |g|= 0.165  |ddm|= 0.671
HOMO:  -0.7826800621893953 LUMO:  -0.5593197139467266
Fermi energy:      -0.6709857263
[2. 2. 2. 2. 2. 2. 2. 2. 2. 2. 2. 2. 2. 2. 2. 2. 2. 2. 2. 2.]
entropy correction =  0.0
cycle= 5 E= -245.899537771833  delta_E= -0.0161  |g|= 0.0426  |ddm|= 0.345
HOMO:  -0.7712104443281674 LUMO:  -0.5415437864624983
Fermi energy:      -0.6563770619
[2. 2. 2. 2. 2. 2. 2. 2. 2. 2. 2. 2. 2. 2. 2. 2. 2. 2. 2. 2.]
entropy correction =  0.0
cycle= 6 E= -245.904012709057  delta_E= -0.00447  |g|= 0.0599  |ddm|= 0.15
HOMO:  -0.7733787913252416 LUMO:  -0.5457173702028975
Fermi energy:      -0.6595482249
[2. 2. 2. 2. 2. 2. 2. 2. 2. 2. 2. 2. 2. 2. 2. 2. 2. 2. 2. 2.]
entropy correction =  0.0
cycle= 7 E= -245.905430671244  delta_E= -0.00142  |g|= 0.0245  |ddm|= 0.107
HOMO:  -0.7731153265530711 LUMO:  -0.5433414389891297
Fermi energy:      -0.6582471625
[2. 2. 2. 2. 2. 2. 2. 2. 2. 2. 2. 2. 2. 2. 2. 2. 2. 2. 2. 2.]
entropy correction =  0.0
cycle= 8 E= -245.90577202502  delta_E= -0.000341  |g|= 0.00465  |ddm|= 0.0751
HOMO:  -0.7735278024890785 LUMO:  -0.5439706324848929
Fermi energy:      -0.6587492450
[2. 2. 2. 2. 2. 2. 2. 2. 2. 2. 2. 2. 2. 2. 2. 2. 2. 2. 2. 2.]
entropy correction =  0.0
cycle= 9 E= -245.905792287905  delta_E= -2.03e-05  |g|= 0.00124  |ddm|= 0.0183
HOMO:  -0.7734840092587069 LUMO:  -0.5441333924421977
Fermi energy:      -0.6587989507
[2. 2. 2. 2. 2. 2. 2. 2. 2. 2. 2. 2. 2. 2. 2. 2. 2. 2. 2. 2.]
entropy correction =  0.0
cycle= 10 E= -245.905793455977  delta_E= -1.17e-06  |g|= 0.000307  |ddm|= 0.0035
HOMO:  -0.773490599319426 LUMO:  -0.5441505898669265
Fermi energy:      -0.6588055407
[2. 2. 2. 2. 2. 2. 2. 2. 2. 2. 2. 2. 2. 2. 2. 2. 2. 2. 2. 2.]
entropy correction =  0.0
cycle= 11 E= -245.905793620664  delta_E= -1.65e-07  |g|= 9.33e-05  |ddm|= 0.000931
HOMO:  -0.7734913739242586 LUMO:  -0.5441403207278197
Fermi energy:      -0.6588063153
[2. 2. 2. 2. 2. 2. 2. 2. 2. 2. 2. 2. 2. 2. 2. 2. 2. 2. 2. 2.]
entropy correction =  0.0
cycle= 12 E= -245.905793633476  delta_E= -1.28e-08  |g|= 2.48e-05  |ddm|= 0.000318
HOMO:  -0.7734888351153553 LUMO:  -0.5441405109217143
Fermi energy:      -0.6588037765
[2. 2. 2. 2. 2. 2. 2. 2. 2. 2. 2. 2. 2. 2. 2. 2. 2. 2. 2. 2.]
entropy correction =  0.0
cycle= 13 E= -245.905793634171  delta_E= -6.94e-10  |g|= 3.61e-06  |ddm|= 9.03e-05
HOMO:  -0.7734885838248621 LUMO:  -0.544140459775323
Fermi energy:      -0.6588035252
[2. 2. 2. 2. 2. 2. 2. 2. 2. 2. 2. 2. 2. 2. 2. 2. 2. 2. 2. 2.]
entropy correction =  0.0
Extra cycle  E= -245.905793634175  delta_E= -3.92e-12  |g|= 1.91e-06  |ddm|= 7.03e-06
entropy correction =  0.0
rks_ao.ne_frozen =  0
Set gradient conv threshold to 3.16228e-05
tot grids = 256508
init E= -293.282965476138
HOMO:  -1.3494360393303044 LUMO:  -1.1910451333614869
Fermi energy:      -1.2702307238
[2. 2. 2. 2. 2. 2. 2. 2. 2. 2. 2. 2. 2. 2. 2. 2. 2. 2. 2. 2.]
entropy correction =  -4.451636280821871e-08
cycle= 1 E= -283.352122640806  delta_E= 9.93  |g|= 5.64  |ddm|= 9.21
HOMO:  -1.2233942141753567 LUMO:  -1.1869706524783346
Fermi energy:      -1.2064107440
[2.     2.     2.     2.     2.     2.     2.     2.     2.     2.
 2.     2.     2.     2.     2.     2.     2.     2.     2.     1.9352
 0.0401 0.0246]
entropy correction =  -0.0030774742461128187
cycle= 2 E= -249.263090742303  delta_E= 34.1  |g|= 10.4  |ddm|= 13.2
HOMO:  -1.0789811867515364 LUMO:  -0.9914509124301143
Fermi energy:      -1.0351406027
[2.0000e+00 2.0000e+00 2.0000e+00 2.0000e+00 2.0000e+00 2.0000e+00
 2.0000e+00 2.0000e+00 2.0000e+00 2.0000e+00 2.0000e+00 2.0000e+00
 2.0000e+00 2.0000e+00 2.0000e+00 2.0000e+00 2.0000e+00 2.0000e+00
 2.0000e+00 1.9997e+00 3.2072e-04]
entropy correction =  -3.144601939037883e-05
cycle= 3 E= -292.149263834721  delta_E= -42.9  |g|= 3.26  |ddm|= 10.1
HOMO:  -1.1900429859524546 LUMO:  -1.1839989233230097
Fermi energy:      -1.1865186547
[2.     2.     2.     2.     2.     2.     2.     2.     2.     2.
 2.     2.     2.     2.     2.     2.     2.     2.     1.9082 1.3385
 0.7532]
entropy correction =  -0.014832785741313437
cycle= 4 E= -294.740955110659  delta_E= -2.59  |g|= 0.799  |ddm|= 2.29
HOMO:  -1.2491986117547933 LUMO:  -1.2278225066545236
Fermi energy:      -1.2374726593
[2.     2.     2.     2.     2.     2.     2.     2.     2.     2.
 2.     2.     2.     2.     2.     2.     2.     2.     1.9214 1.8251
 0.2535]
entropy correction =  -0.008424593275600262
cycle= 5 E= -295.154273608789  delta_E= -0.413  |g|= 0.479  |ddm|= 1.66
HOMO:  -1.280174562918419 LUMO:  -1.1273279374123746
Fermi energy:      -1.2037512377
[2. 2. 2. 2. 2. 2. 2. 2. 2. 2. 2. 2. 2. 2. 2. 2. 2. 2. 2. 2.]
entropy correction =  -7.494869214520638e-08
cycle= 6 E= -295.245569072214  delta_E= -0.0913  |g|= 0.377  |ddm|= 0.392
HOMO:  -1.283682385221991 LUMO:  -1.0736470422933455
Fermi energy:      -1.1786647099
[2. 2. 2. 2. 2. 2. 2. 2. 2. 2. 2. 2. 2. 2. 2. 2. 2. 2. 2. 2.]
entropy correction =  0.0
cycle= 7 E= -295.264579079825  delta_E= -0.019  |g|= 0.287  |ddm|= 0.123
HOMO:  -1.2860845446804836 LUMO:  -1.0377629817205818
Fermi energy:      -1.1620611072
[2. 2. 2. 2. 2. 2. 2. 2. 2. 2. 2. 2. 2. 2. 2. 2. 2. 2. 2. 2.]
entropy correction =  0.0
cycle= 8 E= -295.291511893328  delta_E= -0.0269  |g|= 0.0555  |ddm|= 0.267
HOMO:  -1.2809487326539488 LUMO:  -1.02100598999104
Fermi energy:      -1.1510659202
[2. 2. 2. 2. 2. 2. 2. 2. 2. 2. 2. 2. 2. 2. 2. 2. 2. 2. 2. 2.]
entropy correction =  0.0
cycle= 9 E= -295.293162851147  delta_E= -0.00165  |g|= 0.0167  |ddm|= 0.0714
HOMO:  -1.2844049444889551 LUMO:  -1.0122548341457933
Fermi energy:      -1.1476861945
[2. 2. 2. 2. 2. 2. 2. 2. 2. 2. 2. 2. 2. 2. 2. 2. 2. 2. 2. 2.]
entropy correction =  0.0
cycle= 10 E= -295.293262407015  delta_E= -9.96e-05  |g|= 0.0157  |ddm|= 0.0326
HOMO:  -1.28380961628172 LUMO:  -1.0157273900928108
Fermi energy:      -1.1490439913
[2. 2. 2. 2. 2. 2. 2. 2. 2. 2. 2. 2. 2. 2. 2. 2. 2. 2. 2. 2.]
entropy correction =  0.0
cycle= 11 E= -295.293323803126  delta_E= -6.14e-05  |g|= 0.00409  |ddm|= 0.022
HOMO:  -1.284320503864914 LUMO:  -1.0143061391244348
Fermi energy:      -1.1495548789
[2. 2. 2. 2. 2. 2. 2. 2. 2. 2. 2. 2. 2. 2. 2. 2. 2. 2. 2. 2.]
entropy correction =  0.0
cycle= 12 E= -295.293332136769  delta_E= -8.33e-06  |g|= 0.000314  |ddm|= 0.00655
HOMO:  -1.2843177388293436 LUMO:  -1.0142217797956852
Fermi energy:      -1.1495521138
[2. 2. 2. 2. 2. 2. 2. 2. 2. 2. 2. 2. 2. 2. 2. 2. 2. 2. 2. 2.]
entropy correction =  0.0
cycle= 13 E= -295.293332199062  delta_E= -6.23e-08  |g|= 0.000106  |ddm|= 0.000764
HOMO:  -1.2843177102901615 LUMO:  -1.0142707093524341
Fermi energy:      -1.1495520853
[2. 2. 2. 2. 2. 2. 2. 2. 2. 2. 2. 2. 2. 2. 2. 2. 2. 2. 2. 2.]
entropy correction =  0.0
cycle= 14 E= -295.293332204096  delta_E= -5.03e-09  |g|= 1.12e-05  |ddm|= 0.000177
HOMO:  -1.2843194744023323 LUMO:  -1.014269091408926
Fermi energy:      -1.1495538494
[2. 2. 2. 2. 2. 2. 2. 2. 2. 2. 2. 2. 2. 2. 2. 2. 2. 2. 2. 2.]
entropy correction =  0.0
cycle= 15 E= -295.29333220419  delta_E= -9.31e-11  |g|= 3.94e-06  |ddm|= 2.76e-05
HOMO:  -1.2843195416587903 LUMO:  -1.0142695907304513
Fermi energy:      -1.1495539167
[2. 2. 2. 2. 2. 2. 2. 2. 2. 2. 2. 2. 2. 2. 2. 2. 2. 2. 2. 2.]
entropy correction =  0.0
Extra cycle  E= -295.2933322042  delta_E= -1.06e-11  |g|= 2.45e-06  |ddm|= 7.48e-06
entropy correction =  0.0
-W =  783.9845017922731
2-norm (grad),       max(grad):
6.954118215024432 ,  1.0396711084014567
|umat| =  0.4201102173415187
rks_ao.ne_frozen =  0
Set gradient conv threshold to 3.16228e-05
tot grids = 256508
init E= -246.998226384394
HOMO:  -0.6897438607733972 LUMO:  -0.6597324836031084
Fermi energy:      -0.6751082101
[2.     2.     2.     2.     2.     2.     2.     2.     2.     2.
 2.     2.     2.     2.     2.     2.     2.     1.9992 1.999  1.8983
 0.0883 0.0152]
entropy correction =  -0.004346540134963862
cycle= 1 E= -244.593584278316  delta_E=  2.4  |g|= 1.84  |ddm|= 5.09
HOMO:  -0.5743870378358757 LUMO:  -0.5551512785977164
Fermi energy:      -0.5647691582
[2.     2.     2.     2.     2.     2.     2.     2.     2.     2.
 2.     2.     2.     2.     2.     2.     2.     2.     2.     1.7451
 0.2549]
entropy correction =  -0.007630720089016875
cycle= 2 E= -243.208583879433  delta_E= 1.39  |g|=  3.1  |ddm|=  4.2
HOMO:  -0.7250597592665158 LUMO:  -0.6232129522213595
Fermi energy:      -0.6741315567
[2.     2.     2.     2.     2.     2.     2.     2.     2.     2.
 2.     2.     2.     2.     2.     2.     2.     2.     2.     1.9999]
entropy correction =  -8.455453981683946e-06
cycle= 3 E= -245.701965678367  delta_E= -2.49  |g|= 0.671  |ddm|=  3.2
HOMO:  -0.7442073097482695 LUMO:  -0.5792517965611984
Fermi energy:      -0.6617135411
[2. 2. 2. 2. 2. 2. 2. 2. 2. 2. 2. 2. 2. 2. 2. 2. 2. 2. 2. 2.]
entropy correction =  -2.3990133115749432e-08
cycle= 4 E= -245.873471613251  delta_E= -0.172  |g|= 0.169  |ddm|= 0.604
HOMO:  -0.7815400259683032 LUMO:  -0.5483912830363978
Fermi energy:      -0.6649628775
[2. 2. 2. 2. 2. 2. 2. 2. 2. 2. 2. 2. 2. 2. 2. 2. 2. 2. 2. 2.]
entropy correction =  0.0
cycle= 5 E= -245.891146598505  delta_E= -0.0177  |g|= 0.0423  |ddm|= 0.218
HOMO:  -0.7700925595230648 LUMO:  -0.5290696874964897
Fermi energy:      -0.6496091611
[2. 2. 2. 2. 2. 2. 2. 2. 2. 2. 2. 2. 2. 2. 2. 2. 2. 2. 2. 2.]
entropy correction =  0.0
cycle= 6 E= -245.895676756624  delta_E= -0.00453  |g|= 0.059  |ddm|= 0.133
HOMO:  -0.7720046099811181 LUMO:  -0.5335699233691701
Fermi energy:      -0.6527419147
[2. 2. 2. 2. 2. 2. 2. 2. 2. 2. 2. 2. 2. 2. 2. 2. 2. 2. 2. 2.]
entropy correction =  0.0
cycle= 7 E= -245.896996881368  delta_E= -0.00132  |g|= 0.024  |ddm|= 0.0831
HOMO:  -0.7718083869519853 LUMO:  -0.5313348274335082
Fermi energy:      -0.6515691291
[2. 2. 2. 2. 2. 2. 2. 2. 2. 2. 2. 2. 2. 2. 2. 2. 2. 2. 2. 2.]
entropy correction =  0.0
cycle= 8 E= -245.897310807543  delta_E= -0.000314  |g|= 0.00424  |ddm|= 0.0573
HOMO:  -0.7721969813958923 LUMO:  -0.5318767985036121
Fermi energy:      -0.6520797939
[2. 2. 2. 2. 2. 2. 2. 2. 2. 2. 2. 2. 2. 2. 2. 2. 2. 2. 2. 2.]
entropy correction =  0.0
cycle= 9 E= -245.89732698845  delta_E= -1.62e-05  |g|= 0.00119  |ddm|= 0.0129
HOMO:  -0.7721619571629917 LUMO:  -0.5320105204938079
Fermi energy:      -0.6520447697
[2. 2. 2. 2. 2. 2. 2. 2. 2. 2. 2. 2. 2. 2. 2. 2. 2. 2. 2. 2.]
entropy correction =  0.0
cycle= 10 E= -245.897327972943  delta_E= -9.84e-07  |g|= 0.000293  |ddm|= 0.00235
HOMO:  -0.7721716803109094 LUMO:  -0.5320364324599102
Fermi energy:      -0.6520544928
[2. 2. 2. 2. 2. 2. 2. 2. 2. 2. 2. 2. 2. 2. 2. 2. 2. 2. 2. 2.]
entropy correction =  0.0
cycle= 11 E= -245.897328111224  delta_E= -1.38e-07  |g|= 8.55e-05  |ddm|= 0.000792
HOMO:  -0.772173800823307 LUMO:  -0.5320260355594741
Fermi energy:      -0.6520566133
[2. 2. 2. 2. 2. 2. 2. 2. 2. 2. 2. 2. 2. 2. 2. 2. 2. 2. 2. 2.]
entropy correction =  0.0
cycle= 12 E= -245.897328122481  delta_E= -1.13e-08  |g|= 2.42e-05  |ddm|= 0.000258
HOMO:  -0.7721717363276649 LUMO:  -0.5320261477802641
Fermi energy:      -0.6520545488
[2. 2. 2. 2. 2. 2. 2. 2. 2. 2. 2. 2. 2. 2. 2. 2. 2. 2. 2. 2.]
entropy correction =  0.0
cycle= 13 E= -245.897328123169  delta_E= -6.88e-10  |g|= 3.68e-06  |ddm|= 7.59e-05
HOMO:  -0.7721713610403487 LUMO:  -0.5320260368489199
Fermi energy:      -0.6520541735
[2. 2. 2. 2. 2. 2. 2. 2. 2. 2. 2. 2. 2. 2. 2. 2. 2. 2. 2. 2.]
entropy correction =  0.0
Extra cycle  E= -245.897328123175  delta_E= -6.88e-12  |g|= 1.95e-06  |ddm|= 5.56e-06
entropy correction =  0.0
rks_ao.ne_frozen =  0
Set gradient conv threshold to 3.16228e-05
tot grids = 256508
init E= -294.218222866871
HOMO:  -1.3498854747116278 LUMO:  -1.1925829357788145
Fermi energy:      -1.2712207680
[2. 2. 2. 2. 2. 2. 2. 2. 2. 2. 2. 2. 2. 2. 2. 2. 2. 2. 2. 2.]
entropy correction =  -4.931413063683942e-08
cycle= 1 E= -283.254437550135  delta_E=   11  |g|= 5.63  |ddm|= 8.75
HOMO:  -1.2229420919454124 LUMO:  -1.185378175631293
Fermi energy:      -1.2046928098
[2.     2.     2.     2.     2.     2.     2.     2.     2.     2.
 2.     2.     2.     2.     2.     2.     2.     2.     2.     1.9493
 0.0411 0.0095]
entropy correction =  -0.0024861768304473347
cycle= 2 E= -249.011764624955  delta_E= 34.2  |g|= 10.4  |ddm|= 14.1
HOMO:  -1.0751740082509624 LUMO:  -0.9833593700922137
Fermi energy:      -1.0291260074
[2.0000e+00 2.0000e+00 2.0000e+00 2.0000e+00 2.0000e+00 2.0000e+00
 2.0000e+00 2.0000e+00 2.0000e+00 2.0000e+00 2.0000e+00 2.0000e+00
 2.0000e+00 2.0000e+00 2.0000e+00 2.0000e+00 2.0000e+00 2.0000e+00
 2.0000e+00 1.9998e+00 2.1171e-04]
entropy correction =  -2.1720467700248676e-05
cycle= 3 E= -292.100586822767  delta_E= -43.1  |g|= 3.28  |ddm|= 11.2
HOMO:  -1.1764771467566173 LUMO:  -1.1757270793392922
Fermi energy:      -1.1759871549
[2.    2.    2.    2.    2.    2.    2.    2.    2.    2.    2.    2.
 2.    2.    2.    2.    2.    2.    1.977 1.049 0.974]
entropy correction =  -0.014474502175173567
cycle= 4 E= -294.757230206222  delta_E= -2.66  |g|= 0.791  |ddm|= 2.28
HOMO:  -1.2339557436598467 LUMO:  -1.1929004424234162
Fermi energy:      -1.2134277578
[2.     2.     2.     2.     2.     2.     2.     2.     2.     2.
 2.     2.     2.     2.     2.     2.     2.     2.     2.     1.9676
 0.0324]
entropy correction =  -0.0016585849129708793
cycle= 5 E= -295.162497272812  delta_E= -0.405  |g|= 0.327  |ddm|= 1.27
HOMO:  -1.2396911038986047 LUMO:  -1.040082533184618
Fermi energy:      -1.1398868183
[2. 2. 2. 2. 2. 2. 2. 2. 2. 2. 2. 2. 2. 2. 2. 2. 2. 2. 2. 2.]
entropy correction =  0.0
cycle= 6 E= -295.195470140782  delta_E= -0.033  |g|= 0.131  |ddm|= 0.29
HOMO:  -1.224251938611714 LUMO:  -1.0188205933011616
Fermi energy:      -1.1215362680
[2. 2. 2. 2. 2. 2. 2. 2. 2. 2. 2. 2. 2. 2. 2. 2. 2. 2. 2. 2.]
entropy correction =  0.0
cycle= 7 E= -295.201060827684  delta_E= -0.00559  |g|= 0.051  |ddm|= 0.118
HOMO:  -1.2307396719172319 LUMO:  -1.0352857899625911
Fermi energy:      -1.1330127298
[2. 2. 2. 2. 2. 2. 2. 2. 2. 2. 2. 2. 2. 2. 2. 2. 2. 2. 2. 2.]
entropy correction =  0.0
cycle= 8 E= -295.201915500143  delta_E= -0.000855  |g|= 0.0138  |ddm|= 0.0516
HOMO:  -1.2290680172436521 LUMO:  -1.0342207419355998
Fermi energy:      -1.1316443793
[2. 2. 2. 2. 2. 2. 2. 2. 2. 2. 2. 2. 2. 2. 2. 2. 2. 2. 2. 2.]
entropy correction =  0.0
cycle= 9 E= -295.20202805377  delta_E= -0.000113  |g|= 0.0032  |ddm|= 0.0206
HOMO:  -1.2293863023286438 LUMO:  -1.0348222766416788
Fermi energy:      -1.1321042899
[2. 2. 2. 2. 2. 2. 2. 2. 2. 2. 2. 2. 2. 2. 2. 2. 2. 2. 2. 2.]
entropy correction =  0.0
cycle= 10 E= -295.20203829212  delta_E= -1.02e-05  |g|= 0.0011  |ddm|= 0.00694
HOMO:  -1.2293969056418335 LUMO:  -1.0348090041566103
Fermi energy:      -1.1321029541
[2. 2. 2. 2. 2. 2. 2. 2. 2. 2. 2. 2. 2. 2. 2. 2. 2. 2. 2. 2.]
entropy correction =  0.0
cycle= 11 E= -295.202039399101  delta_E= -1.11e-06  |g|= 0.000268  |ddm|= 0.00273
HOMO:  -1.229373086358733 LUMO:  -1.0346918829096197
Fermi energy:      -1.1320324855
[2. 2. 2. 2. 2. 2. 2. 2. 2. 2. 2. 2. 2. 2. 2. 2. 2. 2. 2. 2.]
entropy correction =  0.0
cycle= 12 E= -295.202039458033  delta_E= -5.89e-08  |g|= 5.79e-05  |ddm|= 0.000644
HOMO:  -1.229366972480977 LUMO:  -1.034700186243348
Fermi energy:      -1.1320335788
[2. 2. 2. 2. 2. 2. 2. 2. 2. 2. 2. 2. 2. 2. 2. 2. 2. 2. 2. 2.]
entropy correction =  0.0
cycle= 13 E= -295.202039459866  delta_E= -1.83e-09  |g|= 1.02e-05  |ddm|= 0.000111
HOMO:  -1.2293687305864236 LUMO:  -1.0347001666229427
Fermi energy:      -1.1320344499
[2. 2. 2. 2. 2. 2. 2. 2. 2. 2. 2. 2. 2. 2. 2. 2. 2. 2. 2. 2.]
entropy correction =  0.0
cycle= 14 E= -295.202039459925  delta_E= -5.96e-11  |g|= 2.31e-06  |ddm|= 1.92e-05
HOMO:  -1.229368587431913 LUMO:  -1.0346998425988376
Fermi energy:      -1.1320342157
[2. 2. 2. 2. 2. 2. 2. 2. 2. 2. 2. 2. 2. 2. 2. 2. 2. 2. 2. 2.]
entropy correction =  0.0
Extra cycle  E= -295.202039459927  delta_E= -1.93e-12  |g|= 9.13e-07  |ddm|= 3.68e-06
entropy correction =  0.0
-W =  783.0775927936781
2-norm (grad),       max(grad):
4.1396093016403865 ,  0.6497703604269015
|umat| =  0.13434103779727752
rks_ao.ne_frozen =  0
Set gradient conv threshold to 3.16228e-05
tot grids = 256508
init E= -247.196131175831
HOMO:  -0.6897136510883212 LUMO:  -0.6581159147664901
Fermi energy:      -0.6743697847
[2.     2.     2.     2.     2.     2.     2.     2.     2.     2.
 2.     2.     2.     2.     2.     2.     2.     1.9993 1.9991 1.9112
 0.0746 0.0159]
entropy correction =  -0.003944596504921336
cycle= 1 E= -244.589750771219  delta_E= 2.61  |g|= 1.84  |ddm|= 4.79
HOMO:  -0.5720850195460606 LUMO:  -0.555581043677477
Fermi energy:      -0.5638330316
[2.     2.     2.     2.     2.     2.     2.     2.     2.     2.
 2.     2.     2.     2.     2.     2.     2.     2.     2.     1.6779
 0.3221]
entropy correction =  -0.00882831085465817
cycle= 2 E= -243.095791216749  delta_E= 1.49  |g|= 3.14  |ddm|= 4.25
HOMO:  -0.7271771102876409 LUMO:  -0.6164609501686314
Fermi energy:      -0.6718133938
[2. 2. 2. 2. 2. 2. 2. 2. 2. 2. 2. 2. 2. 2. 2. 2. 2. 2. 2. 2.]
entropy correction =  -3.7599628963514815e-06
cycle= 3 E= -245.693664590006  delta_E= -2.6  |g|= 0.693  |ddm|= 3.23
HOMO:  -0.7428475466944627 LUMO:  -0.57518574417943
Fermi energy:      -0.6590018194
[2. 2. 2. 2. 2. 2. 2. 2. 2. 2. 2. 2. 2. 2. 2. 2. 2. 2. 2. 2.]
entropy correction =  -1.8585154085190792e-08
cycle= 4 E= -245.874743925431  delta_E= -0.181  |g|= 0.174  |ddm|= 0.626
HOMO:  -0.7815035013929515 LUMO:  -0.5455045018232724
Fermi energy:      -0.6634615092
[2. 2. 2. 2. 2. 2. 2. 2. 2. 2. 2. 2. 2. 2. 2. 2. 2. 2. 2. 2.]
entropy correction =  0.0
cycle= 5 E= -245.893820068306  delta_E= -0.0191  |g|= 0.0428  |ddm|= 0.23
HOMO:  -0.769920241877425 LUMO:  -0.5251314249875119
Fermi energy:      -0.6476057888
[2. 2. 2. 2. 2. 2. 2. 2. 2. 2. 2. 2. 2. 2. 2. 2. 2. 2. 2. 2.]
entropy correction =  0.0
cycle= 6 E= -245.898555613936  delta_E= -0.00474  |g|= 0.0598  |ddm|= 0.139
HOMO:  -0.771749385360535 LUMO:  -0.5298469860036921
Fermi energy:      -0.6507777057
[2. 2. 2. 2. 2. 2. 2. 2. 2. 2. 2. 2. 2. 2. 2. 2. 2. 2. 2. 2.]
entropy correction =  0.0
cycle= 7 E= -245.899873348101  delta_E= -0.00132  |g|= 0.0246  |ddm|= 0.0845
HOMO:  -0.7715916217403008 LUMO:  -0.5276137161873421
Fermi energy:      -0.6495213092
[2. 2. 2. 2. 2. 2. 2. 2. 2. 2. 2. 2. 2. 2. 2. 2. 2. 2. 2. 2.]
entropy correction =  0.0
cycle= 8 E= -245.9001962563  delta_E= -0.000323  |g|= 0.00423  |ddm|= 0.0606
HOMO:  -0.7719751016840918 LUMO:  -0.5281234130656469
Fermi energy:      -0.6500268595
[2. 2. 2. 2. 2. 2. 2. 2. 2. 2. 2. 2. 2. 2. 2. 2. 2. 2. 2. 2.]
entropy correction =  0.0
cycle= 9 E= -245.900212085548  delta_E= -1.58e-05  |g|= 0.0012  |ddm|= 0.0132
HOMO:  -0.7719427496314711 LUMO:  -0.5282538094386106
Fermi energy:      -0.6501165778
[2. 2. 2. 2. 2. 2. 2. 2. 2. 2. 2. 2. 2. 2. 2. 2. 2. 2. 2. 2.]
entropy correction =  0.0
cycle= 10 E= -245.900213045121  delta_E= -9.6e-07  |g|= 0.000298  |ddm|= 0.00247
HOMO:  -0.7719544198158705 LUMO:  -0.5282828120853589
Fermi energy:      -0.6501282479
[2. 2. 2. 2. 2. 2. 2. 2. 2. 2. 2. 2. 2. 2. 2. 2. 2. 2. 2. 2.]
entropy correction =  0.0
cycle= 11 E= -245.900213180734  delta_E= -1.36e-07  |g|= 8.47e-05  |ddm|= 0.000789
HOMO:  -0.7719572953884021 LUMO:  -0.5282720708195018
Fermi energy:      -0.6501311235
[2. 2. 2. 2. 2. 2. 2. 2. 2. 2. 2. 2. 2. 2. 2. 2. 2. 2. 2. 2.]
entropy correction =  0.0
cycle= 12 E= -245.900213192033  delta_E= -1.13e-08  |g|= 2.45e-05  |ddm|= 0.000259
HOMO:  -0.7719554197206627 LUMO:  -0.5282721948903247
Fermi energy:      -0.6501292478
[2. 2. 2. 2. 2. 2. 2. 2. 2. 2. 2. 2. 2. 2. 2. 2. 2. 2. 2. 2.]
entropy correction =  0.0
cycle= 13 E= -245.900213192752  delta_E= -7.19e-10  |g|= 3.79e-06  |ddm|= 8.03e-05
HOMO:  -0.7719549909728806 LUMO:  -0.5282720462995114
Fermi energy:      -0.6501288191
[2. 2. 2. 2. 2. 2. 2. 2. 2. 2. 2. 2. 2. 2. 2. 2. 2. 2. 2. 2.]
entropy correction =  0.0
Extra cycle  E= -245.900213192759  delta_E= -7.33e-12  |g|= 2e-06  |ddm|= 5.95e-06
entropy correction =  0.0
rks_ao.ne_frozen =  0
Set gradient conv threshold to 3.16228e-05
tot grids = 256508
init E= -294.511705179745
HOMO:  -1.3501858696659863 LUMO:  -1.1930724817645089
Fermi energy:      -1.2716157650
[2. 2. 2. 2. 2. 2. 2. 2. 2. 2. 2. 2. 2. 2. 2. 2. 2. 2. 2. 2.]
entropy correction =  -5.01989706136377e-08
cycle= 1 E= -283.241435378239  delta_E= 11.3  |g|= 5.63  |ddm|= 8.97
HOMO:  -1.2230457150490228 LUMO:  -1.1848269902270923
Fermi energy:      -1.2043437971
[2.     2.     2.     2.     2.     2.     2.     2.     2.     2.
 2.     2.     2.     2.     2.     2.     2.     2.     2.     1.9536
 0.0396 0.0068]
entropy correction =  -0.0023021546578109228
cycle= 2 E= -248.961334655883  delta_E= 34.3  |g|= 10.4  |ddm|= 15.3
HOMO:  -1.0741423191336148 LUMO:  -0.9817953283400837
Fermi energy:      -1.0278453867
[2.0000e+00 2.0000e+00 2.0000e+00 2.0000e+00 2.0000e+00 2.0000e+00
 2.0000e+00 2.0000e+00 2.0000e+00 2.0000e+00 2.0000e+00 2.0000e+00
 2.0000e+00 2.0000e+00 2.0000e+00 2.0000e+00 2.0000e+00 2.0000e+00
 2.0000e+00 1.9998e+00 2.0005e-04]
entropy correction =  -2.0617936821092183e-05
cycle= 3 E= -292.109740296637  delta_E= -43.1  |g|= 3.28  |ddm|= 12.5
HOMO:  -1.1747902091857312 LUMO:  -1.1714171542217138
Fermi energy:      -1.1730174048
[2.     2.     2.     2.     2.     2.     2.     2.     2.     2.
 2.     2.     2.     2.     2.     2.     2.     2.     1.9832 1.1754
 0.8413]
entropy correction =  -0.014066308506861453
cycle= 4 E= -294.794710738566  delta_E= -2.68  |g|= 0.778  |ddm|= 2.28
HOMO:  -1.234812347636134 LUMO:  -1.1716983327639978
Fermi energy:      -1.2032553113
[2.     2.     2.     2.     2.     2.     2.     2.     2.     2.
 2.     2.     2.     2.     2.     2.     2.     2.     2.     1.9964
 0.0036]
entropy correction =  -0.00026503079207621476
cycle= 5 E= -295.180346506027  delta_E= -0.386  |g|= 0.323  |ddm|= 1.08
HOMO:  -1.241172860508043 LUMO:  -1.0248294425167341
Fermi energy:      -1.1330011566
[2. 2. 2. 2. 2. 2. 2. 2. 2. 2. 2. 2. 2. 2. 2. 2. 2. 2. 2. 2.]
entropy correction =  0.0
cycle= 6 E= -295.209375783076  delta_E= -0.029  |g|= 0.119  |ddm|= 0.286
HOMO:  -1.2245738458545279 LUMO:  -1.0166154428058947
Fermi energy:      -1.1205946459
[2. 2. 2. 2. 2. 2. 2. 2. 2. 2. 2. 2. 2. 2. 2. 2. 2. 2. 2. 2.]
entropy correction =  0.0
cycle= 7 E= -295.214077525898  delta_E= -0.0047  |g|= 0.047  |ddm|= 0.11
HOMO:  -1.230615609954993 LUMO:  -1.0308800505723177
Fermi energy:      -1.1307478301
[2. 2. 2. 2. 2. 2. 2. 2. 2. 2. 2. 2. 2. 2. 2. 2. 2. 2. 2. 2.]
entropy correction =  0.0
cycle= 8 E= -295.214834769845  delta_E= -0.000757  |g|= 0.0123  |ddm|= 0.05
HOMO:  -1.2292557246881122 LUMO:  -1.0295001776263422
Fermi energy:      -1.1293779531
[2. 2. 2. 2. 2. 2. 2. 2. 2. 2. 2. 2. 2. 2. 2. 2. 2. 2. 2. 2.]
entropy correction =  0.0
cycle= 9 E= -295.214933024685  delta_E= -9.83e-05  |g|= 0.0031  |ddm|= 0.0203
HOMO:  -1.2295282944623895 LUMO:  -1.0301833271338143
Fermi energy:      -1.1298558100
[2. 2. 2. 2. 2. 2. 2. 2. 2. 2. 2. 2. 2. 2. 2. 2. 2. 2. 2. 2.]
entropy correction =  0.0
cycle= 10 E= -295.214941639998  delta_E= -8.62e-06  |g|= 0.00109  |ddm|= 0.00645
HOMO:  -1.2295186586579607 LUMO:  -1.0301213287722821
Fermi energy:      -1.1298199948
[2. 2. 2. 2. 2. 2. 2. 2. 2. 2. 2. 2. 2. 2. 2. 2. 2. 2. 2. 2.]
entropy correction =  0.0
cycle= 11 E= -295.214942689143  delta_E= -1.05e-06  |g|= 0.000235  |ddm|= 0.00272
HOMO:  -1.2295032654637121 LUMO:  -1.0300177473035579
Fermi energy:      -1.1297605070
[2. 2. 2. 2. 2. 2. 2. 2. 2. 2. 2. 2. 2. 2. 2. 2. 2. 2. 2. 2.]
entropy correction =  0.0
cycle= 12 E= -295.21494273817  delta_E= -4.9e-08  |g|= 5.09e-05  |ddm|= 0.0006
HOMO:  -1.2295002739003145 LUMO:  -1.030027012924217
Fermi energy:      -1.1297636449
[2. 2. 2. 2. 2. 2. 2. 2. 2. 2. 2. 2. 2. 2. 2. 2. 2. 2. 2. 2.]
entropy correction =  0.0
cycle= 13 E= -295.214942739552  delta_E= -1.38e-09  |g|= 1.02e-05  |ddm|= 9.63e-05
HOMO:  -1.229500958701815 LUMO:  -1.0300282973199477
Fermi energy:      -1.1297646285
[2. 2. 2. 2. 2. 2. 2. 2. 2. 2. 2. 2. 2. 2. 2. 2. 2. 2. 2. 2.]
entropy correction =  0.0
cycle= 14 E= -295.214942739607  delta_E= -5.52e-11  |g|= 2.43e-06  |ddm|= 1.93e-05
HOMO:  -1.229500870305639 LUMO:  -1.0300279497656122
Fermi energy:      -1.1297644130
[2. 2. 2. 2. 2. 2. 2. 2. 2. 2. 2. 2. 2. 2. 2. 2. 2. 2. 2. 2.]
entropy correction =  0.0
Extra cycle  E= -295.214942739611  delta_E= -3.47e-12  |g|= 9.65e-07  |ddm|= 3.86e-06
entropy correction =  0.0
-W =  782.8400984965485
2-norm (grad),       max(grad):
3.797385959016275 ,  0.6486754306711784
|umat| =  0.04351542878798713
rks_ao.ne_frozen =  0
Set gradient conv threshold to 3.16228e-05
tot grids = 256508
init E= -247.259030972222
HOMO:  -0.6897051464360829 LUMO:  -0.6576035553929697
Fermi energy:      -0.6741736437
[2.     2.     2.     2.     2.     2.     2.     2.     2.     2.
 2.     2.     2.     2.     2.     2.     2.     1.9993 1.9991 1.9143
 0.0702 0.0171]
entropy correction =  -0.00384877206742708
cycle= 1 E= -244.584851977656  delta_E= 2.67  |g|= 1.85  |ddm|= 4.84
HOMO:  -0.5705224200486618 LUMO:  -0.5564116983010946
Fermi energy:      -0.5634670592
[2.     2.     2.     2.     2.     2.     2.     2.     2.     2.
 2.     2.     2.     2.     2.     2.     2.     2.     2.     1.6079
 0.3921]
entropy correction =  -0.009897974566675719
cycle= 2 E= -242.984263176016  delta_E=  1.6  |g|= 3.18  |ddm|=  4.5
HOMO:  -0.7296962497133131 LUMO:  -0.6129981282407518
Fermi energy:      -0.6713394324
[2. 2. 2. 2. 2. 2. 2. 2. 2. 2. 2. 2. 2. 2. 2. 2. 2. 2. 2. 2.]
entropy correction =  -2.170909771800224e-06
cycle= 3 E= -245.684956846117  delta_E= -2.7  |g|= 0.715  |ddm|= 3.35
HOMO:  -0.7418456240658584 LUMO:  -0.574069500738277
Fermi energy:      -0.6579439322
[2. 2. 2. 2. 2. 2. 2. 2. 2. 2. 2. 2. 2. 2. 2. 2. 2. 2. 2. 2.]
entropy correction =  -1.838570897892405e-08
cycle= 4 E= -245.875398987503  delta_E= -0.19  |g|= 0.181  |ddm|= 0.664
HOMO:  -0.7817406885873851 LUMO:  -0.5452729822555201
Fermi energy:      -0.6634545558
[2. 2. 2. 2. 2. 2. 2. 2. 2. 2. 2. 2. 2. 2. 2. 2. 2. 2. 2. 2.]
entropy correction =  0.0
cycle= 5 E= -245.896146478243  delta_E= -0.0207  |g|= 0.0439  |ddm|= 0.258
HOMO:  -0.769961519696391 LUMO:  -0.5238155074255193
Fermi energy:      -0.6469146447
[2. 2. 2. 2. 2. 2. 2. 2. 2. 2. 2. 2. 2. 2. 2. 2. 2. 2. 2. 2.]
entropy correction =  0.0
cycle= 6 E= -245.901193949396  delta_E= -0.00505  |g|= 0.0613  |ddm|= 0.148
HOMO:  -0.7717551860099111 LUMO:  -0.528760426086861
Fermi energy:      -0.6501731548
[2. 2. 2. 2. 2. 2. 2. 2. 2. 2. 2. 2. 2. 2. 2. 2. 2. 2. 2. 2.]
entropy correction =  0.0
cycle= 7 E= -245.902546548065  delta_E= -0.00135  |g|= 0.0256  |ddm|= 0.0899
HOMO:  -0.7716249483615029 LUMO:  -0.5264667597597911
Fermi energy:      -0.6490663546
[2. 2. 2. 2. 2. 2. 2. 2. 2. 2. 2. 2. 2. 2. 2. 2. 2. 2. 2. 2.]
entropy correction =  0.0
cycle= 8 E= -245.902892879424  delta_E= -0.000346  |g|= 0.00435  |ddm|= 0.0675
HOMO:  -0.7720107711512446 LUMO:  -0.5269558199429065
Fermi energy:      -0.6494521774
[2. 2. 2. 2. 2. 2. 2. 2. 2. 2. 2. 2. 2. 2. 2. 2. 2. 2. 2. 2.]
entropy correction =  0.0
cycle= 9 E= -245.902909464623  delta_E= -1.66e-05  |g|= 0.00124  |ddm|= 0.0147
HOMO:  -0.7719796966830021 LUMO:  -0.5270913091436065
Fermi energy:      -0.6495431732
[2. 2. 2. 2. 2. 2. 2. 2. 2. 2. 2. 2. 2. 2. 2. 2. 2. 2. 2. 2.]
entropy correction =  0.0
cycle= 10 E= -245.902910454301  delta_E= -9.9e-07  |g|= 0.000311  |ddm|= 0.00277
HOMO:  -0.7719934602737457 LUMO:  -0.5271224166939625
Fermi energy:      -0.6495569368
[2. 2. 2. 2. 2. 2. 2. 2. 2. 2. 2. 2. 2. 2. 2. 2. 2. 2. 2. 2.]
entropy correction =  0.0
cycle= 11 E= -245.902910596067  delta_E= -1.42e-07  |g|= 8.66e-05  |ddm|= 0.000826
HOMO:  -0.7719970990154696 LUMO:  -0.5271110427280459
Fermi energy:      -0.6495605756
[2. 2. 2. 2. 2. 2. 2. 2. 2. 2. 2. 2. 2. 2. 2. 2. 2. 2. 2. 2.]
entropy correction =  0.0
cycle= 12 E= -245.902910608121  delta_E= -1.21e-08  |g|= 2.54e-05  |ddm|= 0.000272
HOMO:  -0.7719953421272547 LUMO:  -0.5271112097654125
Fermi energy:      -0.6495588187
[2. 2. 2. 2. 2. 2. 2. 2. 2. 2. 2. 2. 2. 2. 2. 2. 2. 2. 2. 2.]
entropy correction =  0.0
cycle= 13 E= -245.902910608905  delta_E= -7.83e-10  |g|= 3.95e-06  |ddm|= 9.1e-05
HOMO:  -0.7719948660728884 LUMO:  -0.527111018796128
Fermi energy:      -0.6495583426
[2. 2. 2. 2. 2. 2. 2. 2. 2. 2. 2. 2. 2. 2. 2. 2. 2. 2. 2. 2.]
entropy correction =  0.0
Extra cycle  E= -245.902910608913  delta_E= -8.36e-12  |g|= 2.08e-06  |ddm|= 6.38e-06
entropy correction =  0.0
rks_ao.ne_frozen =  0
Set gradient conv threshold to 3.16228e-05
tot grids = 256508
init E= -294.604982242872
HOMO:  -1.3503125466729493 LUMO:  -1.1932287518430849
Fermi energy:      -1.2717582187
[2. 2. 2. 2. 2. 2. 2. 2. 2. 2. 2. 2. 2. 2. 2. 2. 2. 2. 2. 2.]
entropy correction =  -5.0338806554357325e-08
cycle= 1 E= -283.244664916469  delta_E= 11.4  |g|= 5.63  |ddm|= 9.55
HOMO:  -1.2230498408721842 LUMO:  -1.1846179880463392
Fermi energy:      -1.2042078630
[2.     2.     2.     2.     2.     2.     2.     2.     2.     2.
 2.     2.     2.     2.     2.     2.     2.     2.     2.     1.9549
 0.039  0.0061]
entropy correction =  -0.002247885184089378
cycle= 2 E= -248.951568895248  delta_E= 34.3  |g|= 10.4  |ddm|= 16.5
HOMO:  -1.073847246701288 LUMO:  -0.981522579573491
Fermi energy:      -1.0275719308
[2.0000e+00 2.0000e+00 2.0000e+00 2.0000e+00 2.0000e+00 2.0000e+00
 2.0000e+00 2.0000e+00 2.0000e+00 2.0000e+00 2.0000e+00 2.0000e+00
 2.0000e+00 2.0000e+00 2.0000e+00 2.0000e+00 2.0000e+00 2.0000e+00
 2.0000e+00 1.9998e+00 2.0007e-04]
entropy correction =  -2.0608486616142743e-05
cycle= 3 E= -292.117432221837  delta_E= -43.2  |g|= 3.28  |ddm|= 13.6
HOMO:  -1.1745061244895398 LUMO:  -1.1700246209253373
Fermi energy:      -1.1721809508
[2.     2.     2.     2.     2.     2.     2.     2.     2.     2.
 2.     2.     2.     2.     2.     2.     2.     2.     1.9839 1.2284
 0.7876]
entropy correction =  -0.013840048563868886
cycle= 4 E= -294.816665392769  delta_E= -2.7  |g|= 0.772  |ddm|= 2.25
HOMO:  -1.2351541921353546 LUMO:  -1.1635383158304855
Fermi energy:      -1.1993462439
[2.0000e+00 2.0000e+00 2.0000e+00 2.0000e+00 2.0000e+00 2.0000e+00
 2.0000e+00 2.0000e+00 2.0000e+00 2.0000e+00 2.0000e+00 2.0000e+00
 2.0000e+00 2.0000e+00 2.0000e+00 2.0000e+00 2.0000e+00 2.0000e+00
 2.0000e+00 1.9984e+00 1.5504e-03]
entropy correction =  -0.00012654660117198858
cycle= 5 E= -295.191276721814  delta_E= -0.375  |g|= 0.32  |ddm|=    1
HOMO:  -1.2407608733067705 LUMO:  -1.0208623068877247
Fermi energy:      -1.1308115880
[2. 2. 2. 2. 2. 2. 2. 2. 2. 2. 2. 2. 2. 2. 2. 2. 2. 2. 2. 2.]
entropy correction =  0.0
cycle= 6 E= -295.219539533694  delta_E= -0.0283  |g|= 0.117  |ddm|= 0.291
HOMO:  -1.2247731492149432 LUMO:  -1.015738644419127
Fermi energy:      -1.1202559009
[2. 2. 2. 2. 2. 2. 2. 2. 2. 2. 2. 2. 2. 2. 2. 2. 2. 2. 2. 2.]
entropy correction =  0.0
cycle= 7 E= -295.224048077188  delta_E= -0.00451  |g|= 0.046  |ddm|= 0.113
HOMO:  -1.2307219184872447 LUMO:  -1.0293520462005503
Fermi energy:      -1.1300369805
[2. 2. 2. 2. 2. 2. 2. 2. 2. 2. 2. 2. 2. 2. 2. 2. 2. 2. 2. 2.]
entropy correction =  0.0
cycle= 8 E= -295.224777806583  delta_E= -0.00073  |g|= 0.012  |ddm|= 0.0509
HOMO:  -1.229408971718575 LUMO:  -1.0280155653409206
Fermi energy:      -1.1287122674
[2. 2. 2. 2. 2. 2. 2. 2. 2. 2. 2. 2. 2. 2. 2. 2. 2. 2. 2. 2.]
entropy correction =  0.0
cycle= 9 E= -295.224872570374  delta_E= -9.48e-05  |g|= 0.00303  |ddm|= 0.0212
HOMO:  -1.2296757034980696 LUMO:  -1.0286712219845486
Fermi energy:      -1.1291734648
[2. 2. 2. 2. 2. 2. 2. 2. 2. 2. 2. 2. 2. 2. 2. 2. 2. 2. 2. 2.]
entropy correction =  0.0
cycle= 10 E= -295.224880616062  delta_E= -8.05e-06  |g|= 0.00107  |ddm|= 0.00637
HOMO:  -1.2296615896265397 LUMO:  -1.0285993394378483
Fermi energy:      -1.1291304668
[2. 2. 2. 2. 2. 2. 2. 2. 2. 2. 2. 2. 2. 2. 2. 2. 2. 2. 2. 2.]
entropy correction =  0.0
cycle= 11 E= -295.224881637222  delta_E= -1.02e-06  |g|= 0.000226  |ddm|= 0.00274
HOMO:  -1.2296478643914805 LUMO:  -1.0285033036168685
Fermi energy:      -1.1290755815
[2. 2. 2. 2. 2. 2. 2. 2. 2. 2. 2. 2. 2. 2. 2. 2. 2. 2. 2. 2.]
entropy correction =  0.0
cycle= 12 E= -295.224881683119  delta_E= -4.59e-08  |g|= 4.84e-05  |ddm|= 0.000603
HOMO:  -1.2296452761746839 LUMO:  -1.02851285386358
Fermi energy:      -1.1290790660
[2. 2. 2. 2. 2. 2. 2. 2. 2. 2. 2. 2. 2. 2. 2. 2. 2. 2. 2. 2.]
entropy correction =  0.0
cycle= 13 E= -295.224881684381  delta_E= -1.26e-09  |g|= 1e-05  |ddm|= 9.57e-05
HOMO:  -1.2296458579446257 LUMO:  -1.0285142177356819
Fermi energy:      -1.1290800371
[2. 2. 2. 2. 2. 2. 2. 2. 2. 2. 2. 2. 2. 2. 2. 2. 2. 2. 2. 2.]
entropy correction =  0.0
cycle= 14 E= -295.224881684432  delta_E= -5.06e-11  |g|= 2.44e-06  |ddm|= 1.93e-05
HOMO:  -1.2296457765203468 LUMO:  -1.0285138660537787
Fermi energy:      -1.1290798221
[2. 2. 2. 2. 2. 2. 2. 2. 2. 2. 2. 2. 2. 2. 2. 2. 2. 2. 2. 2.]
entropy correction =  0.0
Extra cycle  E= -295.224881684435  delta_E= -2.84e-12  |g|= 9.7e-07  |ddm|= 3.87e-06
[...]
entropy correction =  -1.0097115515955764e-05
cycle= 21 E= -295.328885614765  delta_E= -7.55e-05  |g|= 0.00201  |ddm|= 0.0222
HOMO:  -1.454796084469126 LUMO:  -1.354778184797468
Fermi energy:      -1.4047871340
[2.     2.     2.     2.     2.     2.     2.     2.     2.     2.
 2.     2.     2.     2.     2.     2.     2.     2.     2.     1.9999]
entropy correction =  -9.971313405757528e-06
cycle= 22 E= -295.328978221677  delta_E= -9.26e-05  |g|= 0.00182  |ddm|= 0.0296
HOMO:  -1.4544214255554158 LUMO:  -1.3542751032635847
Fermi energy:      -1.4043482639
[2.     2.     2.     2.     2.     2.     2.     2.     2.     2.
 2.     2.     2.     2.     2.     2.     2.     2.     2.     1.9999]
entropy correction =  -9.855574225438518e-06
cycle= 23 E= -295.329112517354  delta_E= -0.000134  |g|= 0.00282  |ddm|= 0.0603
HOMO:  -1.454603859735817 LUMO:  -1.354034121737681
Fermi energy:      -1.4043189902
[2.     2.     2.     2.     2.     2.     2.     2.     2.     2.
 2.     2.     2.     2.     2.     2.     2.     2.     2.     1.9999]
entropy correction =  -9.483316997186053e-06
cycle= 24 E= -295.329162363103  delta_E= -4.98e-05  |g|= 0.00226  |ddm|= 0.0336
HOMO:  -1.454697332367357 LUMO:  -1.3541668930122768
Fermi energy:      -1.4044321121
[2.     2.     2.     2.     2.     2.     2.     2.     2.     2.
 2.     2.     2.     2.     2.     2.     2.     2.     2.     1.9999]
entropy correction =  -9.517273115907474e-06
cycle= 25 E= -295.329178117568  delta_E= -1.58e-05  |g|= 0.00157  |ddm|= 0.0117
HOMO:  -1.4546753809378188 LUMO:  -1.3541453226627238
Fermi energy:      -1.4044103512
[2.     2.     2.     2.     2.     2.     2.     2.     2.     2.
 2.     2.     2.     2.     2.     2.     2.     2.     2.     1.9999]
entropy correction =  -9.517602977886984e-06
cycle= 26 E= -295.329175977865  delta_E= 2.14e-06  |g|= 0.00154  |ddm|= 0.00259
HOMO:  -1.4547763350201628 LUMO:  -1.3540998326303437
Fermi energy:      -1.4044380833
[2.     2.     2.     2.     2.     2.     2.     2.     2.     2.
 2.     2.     2.     2.     2.     2.     2.     2.     2.     1.9999]
entropy correction =  -9.391671269963972e-06
cycle= 27 E= -295.329181495506  delta_E= -5.52e-06  |g|= 0.0013  |ddm|= 0.0145
HOMO:  -1.4548453467884173 LUMO:  -1.3540845548473277
Fermi energy:      -1.4044649503
[2.     2.     2.     2.     2.     2.     2.     2.     2.     2.
 2.     2.     2.     2.     2.     2.     2.     2.     2.     1.9999]
entropy correction =  -9.319937660555284e-06
cycle= 28 E= -295.329185854669  delta_E= -4.36e-06  |g|= 0.000638  |ddm|= 0.00771
HOMO:  -1.4548741623750745 LUMO:  -1.35402315990539
Fermi energy:      -1.4044486606
[2.     2.     2.     2.     2.     2.     2.     2.     2.     2.
 2.     2.     2.     2.     2.     2.     2.     2.     2.     1.9999]
entropy correction =  -9.243765991305622e-06
cycle= 29 E= -295.32918859919  delta_E= -2.74e-06  |g|= 0.000815  |ddm|= 0.00678
HOMO:  -1.4548836775873706 LUMO:  -1.3540179950638942
Fermi energy:      -1.4044508358
[2.     2.     2.     2.     2.     2.     2.     2.     2.     2.
 2.     2.     2.     2.     2.     2.     2.     2.     2.     1.9999]
entropy correction =  -9.231428946262387e-06
cycle= 30 E= -295.329189285024  delta_E= -6.86e-07  |g|= 0.00063  |ddm|= 0.00414
HOMO:  -1.4549374368999641 LUMO:  -1.354016673260736
Fermi energy:      -1.4044770546
[2.     2.     2.     2.     2.     2.     2.     2.     2.     2.
 2.     2.     2.     2.     2.     2.     2.     2.     2.     1.9999]
entropy correction =  -9.185284218010266e-06
cycle= 31 E= -295.329189300305  delta_E= -1.53e-08  |g|= 0.000392  |ddm|= 0.0055
HOMO:  -1.4549237280887761 LUMO:  -1.3539708437031417
Fermi energy:      -1.4044472854
[2.     2.     2.     2.     2.     2.     2.     2.     2.     2.
 2.     2.     2.     2.     2.     2.     2.     2.     2.     1.9999]
entropy correction =  -9.158480259711907e-06
cycle= 32 E= -295.329188991382  delta_E= 3.09e-07  |g|= 0.000395  |ddm|= 0.00284
HOMO:  -1.4549533881039614 LUMO:  -1.3539404319653978
Fermi energy:      -1.4044469095
[2.     2.     2.     2.     2.     2.     2.     2.     2.     2.
 2.     2.     2.     2.     2.     2.     2.     2.     2.     1.9999]
entropy correction =  -9.108559578298932e-06
cycle= 33 E= -295.329188968213  delta_E= 2.32e-08  |g|= 0.000326  |ddm|= 0.00324
HOMO:  -1.4549735017058743 LUMO:  -1.353916399905385
Fermi energy:      -1.4044449503
[2.     2.     2.     2.     2.     2.     2.     2.     2.     2.
 2.     2.     2.     2.     2.     2.     2.     2.     2.     1.9999]
entropy correction =  -9.072045598571018e-06
cycle= 34 E= -295.329189081158  delta_E= -1.13e-07  |g|= 0.000208  |ddm|= 0.00271
HOMO:  -1.4549716831699242 LUMO:  -1.3539200596701708
Fermi energy:      -1.4044458709
[2.     2.     2.     2.     2.     2.     2.     2.     2.     2.
 2.     2.     2.     2.     2.     2.     2.     2.     2.     1.9999]
entropy correction =  -9.076568949091576e-06
cycle= 35 E= -295.329189077059  delta_E= 4.1e-09  |g|= 0.000123  |ddm|= 0.000964
HOMO:  -1.4549711928158626 LUMO:  -1.3539239236004494
Fermi energy:      -1.4044475577
[2.     2.     2.     2.     2.     2.     2.     2.     2.     2.
 2.     2.     2.     2.     2.     2.     2.     2.     2.     1.9999]
entropy correction =  -9.08016580897943e-06
cycle= 36 E= -295.329189094686  delta_E= -1.76e-08  |g|= 6.32e-05  |ddm|= 0.00083
HOMO:  -1.4549720797847163 LUMO:  -1.353921635128056
Fermi energy:      -1.4044468570
[2.     2.     2.     2.     2.     2.     2.     2.     2.     2.
 2.     2.     2.     2.     2.     2.     2.     2.     2.     1.9999]
entropy correction =  -9.077542594015968e-06
cycle= 37 E= -295.329189082288  delta_E= 1.24e-08  |g|= 5.84e-05  |ddm|= 0.000701
HOMO:  -1.4549722986039897 LUMO:  -1.3539207051929307
Fermi energy:      -1.4044465014
[2.     2.     2.     2.     2.     2.     2.     2.     2.     2.
 2.     2.     2.     2.     2.     2.     2.     2.     2.     1.9999]
entropy correction =  -9.076593799045122e-06
cycle= 38 E= -295.329189083895  delta_E= -1.61e-09  |g|= 5.45e-05  |ddm|= 6.84e-05
HOMO:  -1.4549722533512157 LUMO:  -1.3539209616743446
Fermi energy:      -1.4044466070
[2.     2.     2.     2.     2.     2.     2.     2.     2.     2.
 2.     2.     2.     2.     2.     2.     2.     2.     2.     1.9999]
entropy correction =  -9.076843001971e-06
cycle= 39 E= -295.32918909658  delta_E= -1.27e-08  |g|= 4.75e-05  |ddm|= 0.000308
HOMO:  -1.4549694134807973 LUMO:  -1.3539222660158048
Fermi energy:      -1.4044458393
[2.     2.     2.     2.     2.     2.     2.     2.     2.     2.
 2.     2.     2.     2.     2.     2.     2.     2.     2.     1.9999]
entropy correction =  -9.08026640130011e-06
cycle= 40 E= -295.329189109441  delta_E= -1.29e-08  |g|= 5.57e-05  |ddm|= 0.000198
HOMO:  -1.4549677234637752 LUMO:  -1.353925037739305
Fermi energy:      -1.4044463801
[2.     2.     2.     2.     2.     2.     2.     2.     2.     2.
 2.     2.     2.     2.     2.     2.     2.     2.     2.     1.9999]
entropy correction =  -9.083953529914704e-06
cycle= 41 E= -295.329189132807  delta_E= -2.34e-08  |g|= 5.02e-05  |ddm|= 0.000297
HOMO:  -1.4549691690962308 LUMO:  -1.353924968487264
Fermi energy:      -1.4044470683
[2.     2.     2.     2.     2.     2.     2.     2.     2.     2.
 2.     2.     2.     2.     2.     2.     2.     2.     2.     1.9999]
entropy correction =  -9.082701481425275e-06
cycle= 42 E= -295.329189083273  delta_E= 4.95e-08  |g|= 4.83e-05  |ddm|= 0.000568
HOMO:  -1.45497499370841 LUMO:  -1.353919601066676
Fermi energy:      -1.4044472969
[2.     2.     2.     2.     2.     2.     2.     2.     2.     2.
 2.     2.     2.     2.     2.     2.     2.     2.     2.     1.9999]
entropy correction =  -9.073456585646205e-06
cycle= 43 E= -295.329189065437  delta_E= 1.78e-08  |g|= 6.74e-05  |ddm|= 0.000455
HOMO:  -1.4549708311190543 LUMO:  -1.3539213262787038
Fermi energy:      -1.4044460782
[2.     2.     2.     2.     2.     2.     2.     2.     2.     2.
 2.     2.     2.     2.     2.     2.     2.     2.     2.     1.9999]
entropy correction =  -9.078318893055056e-06
cycle= 44 E= -295.329189074424  delta_E= -8.99e-09  |g|= 5.47e-05  |ddm|= 0.000245
HOMO:  -1.454968802538665 LUMO:  -1.353924003178452
Fermi energy:      -1.4044464024
[2.     2.     2.     2.     2.     2.     2.     2.     2.     2.
 2.     2.     2.     2.     2.     2.     2.     2.     2.     1.9999]
entropy correction =  -9.082206662048706e-06
cycle= 45 E= -295.32918908627  delta_E= -1.18e-08  |g|= 3.64e-05  |ddm|= 0.000218
HOMO:  -1.4549706253913355 LUMO:  -1.3539219414324937
Fermi energy:      -1.4044462829
[2.     2.     2.     2.     2.     2.     2.     2.     2.     2.
 2.     2.     2.     2.     2.     2.     2.     2.     2.     1.9999]
entropy correction =  -9.078997004345439e-06
cycle= 46 E= -295.329189070999  delta_E= 1.53e-08  |g|= 5.33e-05  |ddm|= 0.000275
HOMO:  -1.4549660905100608 LUMO:  -1.353923396655756
Fermi energy:      -1.4044447431
[2.     2.     2.     2.     2.     2.     2.     2.     2.     2.
 2.     2.     2.     2.     2.     2.     2.     2.     2.     1.9999]
entropy correction =  -9.083946810162496e-06
cycle= 47 E= -295.329189071831  delta_E= -8.32e-10  |g|= 3.19e-05  |ddm|= 0.000327
HOMO:  -1.4549655362482168 LUMO:  -1.3539255633941663
Fermi energy:      -1.4044455493
[2.     2.     2.     2.     2.     2.     2.     2.     2.     2.
 2.     2.     2.     2.     2.     2.     2.     2.     2.     1.9999]
entropy correction =  -9.086196138029098e-06
cycle= 48 E= -295.329189068828  delta_E= 3e-09  |g|= 3.12e-05  |ddm|= 0.00027
HOMO:  -1.4549671119542946 LUMO:  -1.3539247137518449
Fermi energy:      -1.4044459124
[2.     2.     2.     2.     2.     2.     2.     2.     2.     2.
 2.     2.     2.     2.     2.     2.     2.     2.     2.     1.9999]
entropy correction =  -9.08419118549287e-06
cycle= 49 E= -295.329189073881  delta_E= -5.05e-09  |g|= 2.39e-05  |ddm|= 0.000307
HOMO:  -1.4549641957108492 LUMO:  -1.3539268019462702
Fermi energy:      -1.4044454983
[2.     2.     2.     2.     2.     2.     2.     2.     2.     2.
 2.     2.     2.     2.     2.     2.     2.     2.     2.     1.9999]
entropy correction =  -9.088328663745623e-06
cycle= 50 E= -295.329189080231  delta_E= -6.35e-09  |g|= 1.78e-05  |ddm|= 0.000367
<class 'pydmfet.qcwrap.pyscf_rks_ao.rks_ao'> does not have attributes  coredm dm_guess ne_frozen vext_1e add_coredm_ext_energy
<class 'pydmfet.dfet_ao.scf.EmbedSCF'> does not have attributes  Ne
/home/xingz/.local/lib/python3.7/site-packages/pydmfet/oep/oep_optimize.py:61: OptimizeWarning: Unknown solver options: svd_thresh
  options=self.options)
scf did not converge
entropy correction =  -9.088328663745623e-06
scf energies:
EA (no vemb contrib.) =  -365.29202787769145
EB (no vemb contrib.) =  -412.29244976815625
W =  -779.4334991664236
P_imp change (scf - non-scf):  24.499261468246793
P_bath change (scf - non-scf):  24.690319684818903
|P_frag + P_env - P_ref| =  2.2114152733121193
max element of (P_frag + P_env - P_ref) =  0.29507373609996784
mo orthogonality:
[[-2.1250e-03  3.1571e-04  2.1968e-05 -2.1114e-04 -9.7112e-05  7.7581e-05
   1.0399e-02 -7.5622e-04 -7.9084e-03 -5.7922e-03 -1.7810e-03 -4.6662e-05
  -6.2383e-06 -4.3512e-02 -7.2648e-03 -7.7148e-02  4.7495e-03  1.2243e-03
  -2.1403e-02 -6.0235e-03  7.2802e-02]
 [ 8.1949e-04  7.8301e-04 -2.8648e-04 -3.3731e-04 -1.1855e-04 -9.5687e-05
   2.7287e-02 -6.5361e-05 -2.0929e-02 -1.5002e-02  4.9245e-05 -8.2145e-05
  -1.3772e-05 -1.1332e-01 -1.0924e-02  2.9868e-02 -6.4818e-03 -6.8366e-06
   8.1573e-03 -1.4414e-02 -2.8437e-02]
 [ 1.9186e-04 -3.6459e-05 -7.4145e-05  9.9435e-05  7.0304e-06 -2.0866e-05
   6.7843e-04  1.4510e-03 -1.8534e-03  4.8429e-04  1.4168e-03  5.4707e-08
  -1.2862e-06  1.4358e-04 -3.5500e-04  2.1479e-03  3.6918e-04 -2.6787e-05
   4.0467e-04  1.2721e-04 -1.6766e-03]
 [-9.3886e-05 -7.4263e-05  9.6585e-05  4.3963e-05 -8.2531e-06  7.9184e-06
   1.3339e-03 -7.6771e-04 -3.7309e-03  1.0536e-03 -6.7754e-04  5.3642e-07
  -3.8552e-06  5.4302e-04 -9.4182e-04 -8.9836e-04  1.0495e-03  4.1237e-05
  -2.1950e-04  2.8037e-04  8.1761e-04]
 [-5.7360e-05 -1.8169e-04 -1.3657e-05 -2.5513e-05 -5.5379e-06 -1.8314e-06
  -1.9988e-03 -6.4560e-05 -2.3303e-05 -1.4351e-04  6.9281e-05 -2.9834e-07
  -2.7685e-06 -1.9938e-03 -3.2246e-04 -1.0712e-03 -7.2948e-04  2.0258e-05
   1.4871e-04 -8.2341e-04  9.0830e-04]
 [ 9.1617e-05 -1.1153e-04 -1.3896e-05 -1.2259e-05 -2.6533e-06 -2.0940e-06
  -1.2170e-03  1.1031e-04 -1.8046e-05 -8.1223e-05 -1.3228e-04 -3.4045e-06
  -1.8614e-06 -1.2015e-03 -1.0014e-04  1.6193e-03 -6.1494e-04 -3.6856e-05
  -2.1815e-04 -4.9127e-04 -1.5577e-03]
 [ 3.5778e-04  3.1341e-02  1.6712e-03  2.4897e-03 -2.2159e-03 -9.4524e-04
   2.5034e-01 -1.2765e-03 -8.4030e-02 -6.5200e-02 -1.9229e-03 -3.0242e-04
  -7.7412e-05 -3.8235e-01 -3.7365e-02 -8.8057e-04 -1.2987e-02  1.0891e-03
  -5.4142e-04 -3.9492e-02  2.6427e-04]
 [-4.9774e-03 -1.0830e-03  2.3269e-03 -1.7660e-03 -2.1594e-04  6.3413e-04
  -7.0027e-03  1.7866e-02  1.4601e-03  1.2943e-03  1.6764e-02  1.1735e-04
   1.5997e-05  8.7160e-03 -2.0249e-04 -3.5724e-02  4.0046e-03 -1.4473e-04
  -1.2153e-02  7.8411e-04  4.1929e-02]
 [-3.5528e-04 -3.2968e-02 -3.0507e-03 -4.4839e-03  9.5908e-04  4.0062e-04
  -1.9929e-01  3.7513e-04  5.1127e-02  3.8147e-02  9.3818e-04  1.5241e-04
   7.9218e-05  2.5758e-01  2.9809e-02  2.9675e-03  2.0070e-02 -2.3236e-04
   5.0145e-04  3.4602e-02 -1.2589e-03]
 [ 2.3576e-04  1.0498e-02  2.7688e-03  4.1777e-03  1.9453e-04  7.9757e-05
   7.1588e-02 -2.3179e-04 -1.7734e-02 -1.4028e-02 -4.4486e-04 -9.4115e-05
  -3.2690e-05 -1.0819e-01 -1.5198e-02 -7.8767e-04 -9.3810e-03  1.0719e-04
   3.1410e-05 -1.6964e-02 -6.9729e-05]
 [-1.2515e-04 -2.6974e-05  2.6715e-05 -7.4988e-06 -3.4723e-06  7.1539e-06
  -5.1098e-05 -7.4808e-05  2.6114e-05 -1.2569e-05 -1.4281e-04  2.6338e-02
   1.5459e-03 -5.1597e-06 -8.4442e-05 -6.7119e-04  1.2078e-03 -6.8240e-02
   5.1587e-03 -8.2396e-04 -1.5722e-03]
 [ 7.1640e-03  3.4340e-05 -3.0877e-03  2.0297e-03  2.4138e-04 -6.1375e-04
  -7.2003e-05 -1.7066e-02  6.8129e-04  1.2409e-04 -5.6207e-03 -9.9055e-05
  -5.5415e-06  1.4679e-03 -9.9614e-04 -2.9630e-02  2.1601e-03  9.6155e-04
  -3.0929e-03  1.2593e-04  2.5089e-02]
 [ 1.9977e-04  6.5958e-03 -2.0579e-03 -3.1780e-03  1.7705e-03  7.5558e-04
   3.1393e-02 -7.4200e-04 -9.5607e-02 -4.0110e-02 -1.7028e-03 -2.2465e-04
  -2.3868e-04 -3.4977e-01 -4.5989e-02 -3.4265e-03 -5.4343e-02 -5.1741e-04
   7.0439e-04 -7.6331e-02 -2.3744e-03]
 [ 2.6828e-04  4.2333e-03  7.7039e-03  1.2107e-02 -2.4826e-03 -1.0973e-03
   3.5407e-02  1.7726e-03  1.3298e-01  3.9025e-02  2.0243e-03  2.0385e-04
   4.6062e-04  3.8705e-01  4.9595e-02 -4.7272e-03  6.3915e-02  7.7409e-04
  -3.7055e-03  8.4372e-02  1.0414e-02]
 [-4.0020e-03 -5.4329e-04  3.6388e-03 -1.8378e-03 -3.0199e-04  5.1276e-04
  -1.3009e-03 -1.9722e-03  4.1067e-03  1.5023e-03  5.5671e-04  3.3666e-04
  -6.9384e-06  1.3899e-02  5.9011e-03  1.2071e-01 -7.1414e-03 -2.0290e-03
   3.8824e-02  3.7742e-03 -1.0383e-01]
 [-7.0535e-04 -3.8513e-02 -9.7825e-03 -1.4997e-02  3.2277e-03  1.4255e-03
  -1.8214e-01 -1.5736e-03 -1.4977e-01 -3.1914e-02 -1.7484e-03 -2.0732e-04
  -6.5076e-04 -3.4915e-01 -5.0383e-02  4.1814e-03 -5.2911e-02 -6.8496e-04
   2.7411e-03 -7.2560e-02 -9.3240e-03]
 [-1.1579e-02  8.1931e-05 -1.1979e-03  8.9737e-04  2.9648e-04 -7.1779e-04
   1.0617e-04 -1.7461e-02  1.0555e-03  3.6866e-04 -1.1177e-02  2.8683e-05
   5.8928e-05  2.1588e-03  2.7348e-04 -5.1069e-03  8.3361e-04  1.0065e-04
  -2.8199e-03  4.2162e-04  2.1644e-03]
 [-1.7154e-03 -3.6582e-02 -3.3977e-03 -5.8754e-03  8.0018e-04  4.5642e-04
  -1.4749e-01 -7.5793e-04 -4.3743e-02 -1.5276e-02 -8.8309e-04 -1.3159e-04
  -3.3760e-04 -1.1542e-01 -1.6671e-02  1.9576e-02 -1.6863e-02 -4.7846e-04
   5.8965e-03 -2.2465e-02 -1.9782e-02]
 [-6.9444e-04 -7.5298e-04  9.5812e-05 -2.4492e-04 -1.6759e-05  5.8796e-05
  -2.9925e-03 -2.3231e-04 -7.9622e-04 -1.2425e-04 -6.4341e-05 -1.1695e-02
  -4.6344e-05 -1.0783e-03  2.1900e-04  1.1073e-02 -1.2425e-03  1.1910e-02
   2.1124e-03 -3.0020e-06 -1.0116e-02]
 [ 1.1318e-04  2.2646e-03  3.7102e-04  5.9580e-04 -2.2024e-05 -1.9687e-05
   8.8873e-03  1.3785e-04  4.5199e-03  1.3033e-03  1.1128e-04  1.6747e-03
  -3.6839e-02  7.6885e-03  7.5164e-04 -1.2349e-03  9.4743e-04  5.4408e-04
  -1.7345e-04 -1.2785e-04  1.1297e-03]
 [ 3.7188e-02  5.2973e-03 -1.1978e-02  8.7919e-03  1.5032e-03 -3.2261e-03
   1.9496e-02 -8.8945e-03  1.7567e-03 -1.6900e-03  3.5155e-03 -5.2317e-04
   1.4451e-04 -1.2753e-02 -2.3945e-02 -6.1566e-01  4.5040e-02  1.0638e-02
  -1.7381e-01 -6.7052e-03  5.7425e-01]
 [ 1.8827e-03  2.1314e-01  2.0377e-02  2.8894e-02  2.3051e-03  1.0941e-03
   8.2191e-01  5.4840e-03  1.3413e-01  5.4972e-03  3.2927e-04  4.7356e-04
   1.1461e-04 -3.4418e-02  7.4403e-03  1.7870e-02 -2.7219e-02 -1.3091e-03
   6.5260e-03 -2.2013e-02 -1.9445e-02]]
|P_imp-P_imp_0| =  24.499261468246793
max(P_imp-P_imp_0) =  5.69082419435339
|P_bath-P_bath_0| =  24.690319684818903
max(P_bath-P_bath_0) =  5.6963993500629675
 This problem is unconstrained.

 Warning:  more than 10 function and gradient
   evaluations in the last line search.  Termination
   may possibly be caused by a bad search direction.
RUNNING THE L-BFGS-B CODE

           * * *

Machine precision = 2.220D-16
 N =        21736     M =           10

At X0         0 variables are exactly at the bounds

At iterate    0    f=   7.827704026498E+02    |proj g|=  1.120416556E+01

At iterate    1    f=   7.827547126060E+02    |proj g|=  6.742709234E-01

At iterate    2    f=   7.827480850019E+02    |proj g|=  6.527985166E-01

At iterate    3    f=   7.827165217877E+02    |proj g|=  6.558313655E-01

At iterate    4    f=   7.827012154804E+02    |proj g|=  7.669304876E-01

At iterate    5    f=   7.824359568959E+02    |proj g|=  2.285893816E+00

At iterate    6    f=   7.823943371115E+02    |proj g|=  1.321071634E+00

At iterate    7    f=   7.823208550060E+02    |proj g|=  9.545214295E-01

At iterate    8    f=   7.822872205757E+02    |proj g|=  9.658215625E-01

At iterate    9    f=   7.822334698709E+02    |proj g|=  7.314434257E-01

At iterate   10    f=   7.819987219249E+02    |proj g|=  6.396492423E-01

At iterate   11    f=   7.819347547625E+02    |proj g|=  6.119177514E-01

At iterate   12    f=   7.818873599352E+02    |proj g|=  6.276521746E-01

At iterate   13    f=   7.817326966155E+02    |proj g|=  3.169479955E-01

At iterate   14    f=   7.813607151917E+02    |proj g|=  4.590131605E-01

At iterate   15    f=   7.807861186922E+02    |proj g|=  1.881641725E-01

At iterate   16    f=   7.807525896975E+02    |proj g|=  2.664350933E-01

At iterate   17    f=   7.806276038966E+02    |proj g|=  4.385013471E-01

At iterate   18    f=   7.801291767062E+02    |proj g|=  5.558518634E-01

At iterate   19    f=   7.800333151158E+02    |proj g|=  3.144654024E-01

At iterate   20    f=   7.798339997725E+02    |proj g|=  2.431623942E-01

At iterate   21    f=   7.794968980178E+02    |proj g|=  2.818747817E-01

At iterate   22    f=   7.794618562823E+02    |proj g|=  2.094699524E-01

At iterate   23    f=   7.794334991613E+02    |proj g|=  2.950735651E-01

At iterate   24    f=   7.794334991662E+02    |proj g|=  2.950736331E-01

           * * *

Tit   = total number of iterations
Tnf   = total number of function evaluations
Tnint = total number of segments explored during Cauchy searches
Skip  = number of BFGS updates skipped
Nact  = number of active bounds at final generalized Cauchy point
Projg = norm of the final projected gradient
F     = final function value

           * * *

   N    Tit     Tnf  Tnint  Skip  Nact     Projg        F
21736     24     77      1     0     0   2.951D-01   7.794D+02
  F =   779.43349916616785     

CONVERGENCE: REL_REDUCTION_OF_F_<=_FACTR*EPSMCH             

 Cauchy                time 0.000E+00 seconds.
 Subspace minimization time 0.000E+00 seconds.
 Line search           time 0.000E+00 seconds.

 Total User time 0.000E+00 seconds.

